
     Program PWSCF v.5.0.2 starts on 22Mar2018 at 17:36:45 

     This program is part of the open-source Quantum ESPRESSO suite
     for quantum simulation of materials; please cite
         "P. Giannozzi et al., J. Phys.:Condens. Matter 21 395502 (2009);
          URL http://www.quantum-espresso.org", 
     in publications or presentations arising from this work. More details at
     http://www.quantum-espresso.org/quote.php

     Parallel version (MPI), running on     4 processors
     R & G space division:  proc/nbgrp/npool/nimage =       4

     Current dimensions of program PWSCF are:
     Max number of different atomic species (ntypx) = 10
     Max number of k-points (npk) =  40000
     Max angular momentum in pseudopotentials (lmaxx) =  3
     Waiting for input...
     Reading input from standard input

     Subspace diagonalization in iterative solution of the eigenvalue problem:
     a serial algorithm will be used

 
     Parallelization info
     --------------------
     sticks:   dense  smooth     PW     G-vecs:    dense   smooth      PW
     Min          93      93     30                 1717     1717     310
     Max          94      94     31                 1720     1720     313
     Sum         373     373    121                 6871     6871    1247
 


     bravais-lattice index     =            0
     lattice parameter (alat)  =       5.4125  a.u.
     unit-cell volume          =     202.7222 (a.u.)^3
     number of atoms/cell      =            2
     number of atomic types    =            2
     number of electrons       =        37.00
     number of Kohn-Sham states=           23
     kinetic-energy cutoff     =      40.0000  Ry
     charge density cutoff     =     160.0000  Ry
     convergence threshold     =      1.0E-04
     mixing beta               =       0.7000
     number of iterations used =            8  plain     mixing
     Exchange-correlation      = SLA-PZ-NOGX-NOGC ( 1 1 0 0 0)
     EXX-fraction              =        0.00
     nstep                     =           50


     celldm(1)=   5.412493  celldm(2)=   0.000000  celldm(3)=   0.000000
     celldm(4)=   0.000000  celldm(5)=   0.000000  celldm(6)=   0.000000

     crystal axes: (cart. coord. in units of alat)
               a(1) = (   1.000000   0.000000   0.000000 )  
               a(2) = (   0.000000   1.000000   0.000000 )  
               a(3) = (   0.000000   0.000000   1.278525 )  

     reciprocal axes: (cart. coord. in units 2 pi/alat)
               b(1) = (  1.000000  0.000000  0.000000 )  
               b(2) = (  0.000000  1.000000  0.000000 )  
               b(3) = (  0.000000  0.000000  0.782151 )  


     PseudoPot. # 1 for Nd read from file:
     /home/cwx6513/pp.La/Nd.UPF
     MD5 check sum: c66c5b6abe7b5840ced9b1e244e3bed6
     Pseudo is Norm-conserving, Zval = 14.0
     Generated in analytical, separable form
     Using radial grid of 1257 points,  6 beta functions with: 
                l(1) =   0
                l(2) =   0
                l(3) =   1
                l(4) =   1
                l(5) =   2
                l(6) =   3

     PseudoPot. # 2 for Tm read from file:
     /home/cwx6513/pp.La/Tm.UPF
     MD5 check sum: 245516e0878b5372ceeb9443ded2c4e1
     Pseudo is Norm-conserving, Zval = 23.0
     Generated in analytical, separable form
     Using radial grid of 1269 points,  6 beta functions with: 
                l(1) =   0
                l(2) =   0
                l(3) =   1
                l(4) =   1
                l(5) =   2
                l(6) =   3

     atomic species   valence    mass     pseudopotential
        Cu            14.00    63.54600     Nd( 1.00)
        Au            23.00   196.96600     Tm( 1.00)

     16 Sym. Ops., with inversion, found



   Cartesian axes

     site n.     atom                  positions (alat units)
         1           Cu  tau(   1) = (   0.5000000   0.5000000   0.6392626  )
         2           Au  tau(   2) = (   0.0000000   0.0000000   0.0000000  )

     number of k points=   100  gaussian smearing, width (Ry)=  0.1000

     Number of k-points >= 100: set verbosity='high' to print them.

     Dense  grid:     6871 G-vectors     FFT dimensions: (  24,  24,  27)

     Largest allocated arrays     est. size (Mb)     dimensions
        Kohn-Sham Wavefunctions         0.08 Mb     (    228,   23)
        NL pseudopotentials             0.14 Mb     (    228,   40)
        Each V/rho on FFT grid          0.06 Mb     (   4032)
        Each G-vector array             0.01 Mb     (   1720)
        G-vector shells                 0.01 Mb     (   1720)
     Largest temporary arrays     est. size (Mb)     dimensions
        Each subspace H/S matrix        0.01 Mb     (  23,  23)
        Each <psi_i|beta_j> matrix      0.01 Mb     (     40,   23)
        Arrays for rho mixing           0.49 Mb     (   4032,   8)

     Initial potential from superposition of free atoms

     Starting from uniform charge
     Starting wfc are    0 randomized atomic wfcs

     total cpu time spent up to now is        0.9 secs

     Self-consistent Calculation

     iteration #  1     ecut=    40.00 Ry     beta=0.70
     CG style diagonalization
     c_bands:  1 eigenvalues not converged
     ethr =  1.00E-02,  avg # of iterations = 12.2

     total cpu time spent up to now is        7.4 secs

     total energy              =    -247.71087150 Ry
     Harris-Foulkes estimate   =    -631.73849769 Ry
     estimated scf accuracy    <     461.15322737 Ry

     iteration #  2     ecut=    40.00 Ry     beta=0.70
     CG style diagonalization
     c_bands:  1 eigenvalues not converged
     c_bands:  1 eigenvalues not converged
     c_bands:  1 eigenvalues not converged
     c_bands:  1 eigenvalues not converged
     c_bands:  1 eigenvalues not converged
     c_bands:  1 eigenvalues not converged
     c_bands:  2 eigenvalues not converged
     c_bands:  1 eigenvalues not converged
     c_bands:  1 eigenvalues not converged
     c_bands:  1 eigenvalues not converged
     c_bands:  1 eigenvalues not converged
     c_bands:  3 eigenvalues not converged
     c_bands:  1 eigenvalues not converged
     c_bands:  1 eigenvalues not converged
     c_bands:  1 eigenvalues not converged
     c_bands:  1 eigenvalues not converged
     c_bands:  1 eigenvalues not converged
     c_bands:  1 eigenvalues not converged
     c_bands:  1 eigenvalues not converged
     c_bands:  1 eigenvalues not converged
     c_bands:  1 eigenvalues not converged
     c_bands:  1 eigenvalues not converged
     c_bands:  1 eigenvalues not converged
     c_bands:  2 eigenvalues not converged
     c_bands:  1 eigenvalues not converged
     c_bands:  1 eigenvalues not converged
     c_bands:  2 eigenvalues not converged
     c_bands:  1 eigenvalues not converged
     c_bands:  1 eigenvalues not converged
     c_bands:  2 eigenvalues not converged
     c_bands:  1 eigenvalues not converged
     c_bands:  1 eigenvalues not converged
     c_bands:  3 eigenvalues not converged
     c_bands:  1 eigenvalues not converged
     c_bands:  1 eigenvalues not converged
     c_bands:  1 eigenvalues not converged
     c_bands:  1 eigenvalues not converged
     c_bands:  1 eigenvalues not converged
     c_bands:  1 eigenvalues not converged
     c_bands:  1 eigenvalues not converged
     c_bands:  2 eigenvalues not converged
     c_bands:  3 eigenvalues not converged
     c_bands:  1 eigenvalues not converged
     c_bands:  1 eigenvalues not converged
     c_bands:  1 eigenvalues not converged
     c_bands:  1 eigenvalues not converged
     c_bands:  3 eigenvalues not converged
     c_bands:  2 eigenvalues not converged
     c_bands:  1 eigenvalues not converged
     c_bands:  1 eigenvalues not converged
     c_bands:  2 eigenvalues not converged
     c_bands:  1 eigenvalues not converged
     c_bands:  4 eigenvalues not converged
     c_bands:  2 eigenvalues not converged
     c_bands:  2 eigenvalues not converged
     c_bands:  2 eigenvalues not converged
     c_bands:  1 eigenvalues not converged
     ethr =  1.00E-02,  avg # of iterations = 13.0

     total cpu time spent up to now is       14.9 secs

     total energy              =    -352.50837715 Ry
     Harris-Foulkes estimate   =    -673.88538805 Ry
     estimated scf accuracy    <     639.24169874 Ry

     iteration #  3     ecut=    40.00 Ry     beta=0.70
     CG style diagonalization
     c_bands:  1 eigenvalues not converged
     c_bands:  1 eigenvalues not converged
     c_bands:  1 eigenvalues not converged
     c_bands:  1 eigenvalues not converged
     ethr =  1.00E-02,  avg # of iterations = 11.3

     total cpu time spent up to now is       20.6 secs

     total energy              =    -474.64313358 Ry
     Harris-Foulkes estimate   =    -484.01333661 Ry
     estimated scf accuracy    <      16.13185476 Ry

     iteration #  4     ecut=    40.00 Ry     beta=0.70
     CG style diagonalization
     ethr =  1.00E-02,  avg # of iterations =  4.3

     total cpu time spent up to now is       24.3 secs

     total energy              =    -477.02283290 Ry
     Harris-Foulkes estimate   =    -477.46460334 Ry
     estimated scf accuracy    <       0.91739473 Ry

     iteration #  5     ecut=    40.00 Ry     beta=0.70
     CG style diagonalization
     ethr =  2.48E-03,  avg # of iterations =  3.7

     total cpu time spent up to now is       27.7 secs

     total energy              =    -477.07668790 Ry
     Harris-Foulkes estimate   =    -477.17621953 Ry
     estimated scf accuracy    <       0.14760824 Ry

     iteration #  6     ecut=    40.00 Ry     beta=0.70
     CG style diagonalization
     ethr =  3.99E-04,  avg # of iterations =  4.5

     total cpu time spent up to now is       29.9 secs

     total energy              =    -477.13121997 Ry
     Harris-Foulkes estimate   =    -477.14568286 Ry
     estimated scf accuracy    <       0.02339868 Ry

     iteration #  7     ecut=    40.00 Ry     beta=0.70
     CG style diagonalization
     c_bands:  1 eigenvalues not converged
     ethr =  6.32E-05,  avg # of iterations =  4.0

     total cpu time spent up to now is       31.7 secs

     total energy              =    -477.13510058 Ry
     Harris-Foulkes estimate   =    -477.13571679 Ry
     estimated scf accuracy    <       0.00080413 Ry

     iteration #  8     ecut=    40.00 Ry     beta=0.70
     CG style diagonalization
     c_bands:  1 eigenvalues not converged
     c_bands:  1 eigenvalues not converged
     c_bands:  1 eigenvalues not converged
     c_bands:  1 eigenvalues not converged
     c_bands:  1 eigenvalues not converged
     c_bands:  1 eigenvalues not converged
     c_bands:  1 eigenvalues not converged
     ethr =  2.17E-06,  avg # of iterations =  5.2

     total cpu time spent up to now is       34.1 secs

     total energy              =    -477.13569847 Ry
     Harris-Foulkes estimate   =    -477.13597636 Ry
     estimated scf accuracy    <       0.00053169 Ry

     iteration #  9     ecut=    40.00 Ry     beta=0.70
     CG style diagonalization
     c_bands:  1 eigenvalues not converged
     ethr =  1.44E-06,  avg # of iterations =  3.3

     total cpu time spent up to now is       35.9 secs

     End of self-consistent calculation

     Number of k-points >= 100: set verbosity='high' to print the bands.

     the Fermi energy is    36.7733 ev

!    total energy              =    -477.13570021 Ry
     Harris-Foulkes estimate   =    -477.13575587 Ry
     estimated scf accuracy    <       0.00006499 Ry

     The total energy is the sum of the following terms:

     one-electron contribution =     -61.43916135 Ry
     hartree contribution      =      65.88080532 Ry
     xc contribution           =     -44.30843451 Ry
     ewald contribution        =    -437.19740829 Ry
     smearing contrib. (-TS)   =      -0.07150139 Ry

     convergence has been achieved in   9 iterations

     Forces acting on atoms (Ry/au):

     atom    1 type  1   force =     0.00000000    0.00000000    0.00000000
     atom    2 type  2   force =     0.00000000    0.00000000    0.00000000

     Total force =     0.000000     Total SCF correction =     0.000000


     entering subroutine stress ...

          total   stress  (Ry/bohr**3)                   (kbar)     P= 1489.81
   0.01095257   0.00000000   0.00000000       1611.18      0.00      0.00
   0.00000000   0.01095257   0.00000000          0.00   1611.18      0.00
   0.00000000   0.00000000   0.00847740          0.00      0.00   1247.07


     BFGS Geometry Optimization

     number of scf cycles    =   1
     number of bfgs steps    =   0

     enthalpy new            =    -477.1357002132 Ry

     new trust radius        =       0.5000000000 bohr
     new conv_thr            =       0.0001000000 Ry

     new unit-cell volume =    318.23793 a.u.^3 (    47.15799 Ang^3 )

CELL_PARAMETERS (alat=  5.41249258)
   1.175585808   0.000000000   0.000000000
   0.000000000   1.175585808   0.000000000
   0.000000000   0.000000000   1.452283236

ATOMIC_POSITIONS (crystal)
Cu       0.500000000   0.500000000   0.500000000
Au       0.000000000   0.000000000   0.000000000



     Writing output data file Prototype-La-tP2-AuCu.save
     NEW-OLD atomic charge density approx. for the potential
     NEW k-points: (use verbosity='high' to print them)

     total cpu time spent up to now is       36.8 secs

     Self-consistent Calculation

     iteration #  1     ecut=    40.00 Ry     beta=0.70
     CG style diagonalization
     c_bands:  2 eigenvalues not converged
     c_bands:  1 eigenvalues not converged
     c_bands:  2 eigenvalues not converged
     c_bands:  4 eigenvalues not converged
     c_bands:  4 eigenvalues not converged
     c_bands:  2 eigenvalues not converged
     c_bands:  3 eigenvalues not converged
     c_bands:  3 eigenvalues not converged
     c_bands:  3 eigenvalues not converged
     c_bands:  2 eigenvalues not converged
     c_bands:  3 eigenvalues not converged
     c_bands:  1 eigenvalues not converged
     c_bands:  2 eigenvalues not converged
     c_bands:  3 eigenvalues not converged
     c_bands:  5 eigenvalues not converged
     c_bands:  4 eigenvalues not converged
     c_bands:  1 eigenvalues not converged
     c_bands:  2 eigenvalues not converged
     c_bands:  2 eigenvalues not converged
     c_bands:  3 eigenvalues not converged
     c_bands:  2 eigenvalues not converged
     c_bands:  4 eigenvalues not converged
     c_bands:  4 eigenvalues not converged
     c_bands:  3 eigenvalues not converged
     c_bands:  3 eigenvalues not converged
     c_bands:  1 eigenvalues not converged
     c_bands:  4 eigenvalues not converged
     c_bands:  1 eigenvalues not converged
     c_bands:  4 eigenvalues not converged
     c_bands:  3 eigenvalues not converged
     c_bands:  5 eigenvalues not converged
     c_bands:  2 eigenvalues not converged
     c_bands:  4 eigenvalues not converged
     c_bands:  4 eigenvalues not converged
     c_bands:  5 eigenvalues not converged
     c_bands:  2 eigenvalues not converged
     c_bands:  4 eigenvalues not converged
     c_bands:  3 eigenvalues not converged
     c_bands:  3 eigenvalues not converged
     c_bands:  3 eigenvalues not converged
     c_bands:  3 eigenvalues not converged
     c_bands:  1 eigenvalues not converged
     c_bands:  1 eigenvalues not converged
     c_bands:  2 eigenvalues not converged
     c_bands:  5 eigenvalues not converged
     c_bands:  1 eigenvalues not converged
     c_bands:  4 eigenvalues not converged
     c_bands:  5 eigenvalues not converged
     c_bands:  1 eigenvalues not converged
     c_bands:  2 eigenvalues not converged
     c_bands:  2 eigenvalues not converged
     c_bands:  3 eigenvalues not converged
     c_bands:  3 eigenvalues not converged
     c_bands:  3 eigenvalues not converged
     c_bands:  2 eigenvalues not converged
     c_bands:  3 eigenvalues not converged
     c_bands:  4 eigenvalues not converged
     c_bands:  5 eigenvalues not converged
     c_bands:  1 eigenvalues not converged
     c_bands:  2 eigenvalues not converged
     c_bands:  5 eigenvalues not converged
     c_bands:  4 eigenvalues not converged
     c_bands:  2 eigenvalues not converged
     c_bands:  4 eigenvalues not converged
     c_bands:  5 eigenvalues not converged
     c_bands:  2 eigenvalues not converged
     c_bands:  4 eigenvalues not converged
     c_bands:  1 eigenvalues not converged
     c_bands:  4 eigenvalues not converged
     c_bands:  3 eigenvalues not converged
     c_bands:  3 eigenvalues not converged
     c_bands:  3 eigenvalues not converged
     ethr =  1.00E-06,  avg # of iterations = 16.1

     total cpu time spent up to now is       44.2 secs

     total energy              =    -471.23072622 Ry
     Harris-Foulkes estimate   =    -486.01481725 Ry
     estimated scf accuracy    <      18.71852986 Ry

     iteration #  2     ecut=    40.00 Ry     beta=0.70
     CG style diagonalization
     ethr =  1.00E-02,  avg # of iterations =  4.3

     total cpu time spent up to now is       46.1 secs

     total energy              =    -476.24880349 Ry
     Harris-Foulkes estimate   =    -477.65330344 Ry
     estimated scf accuracy    <       1.94810313 Ry

     iteration #  3     ecut=    40.00 Ry     beta=0.70
     CG style diagonalization
     ethr =  5.27E-03,  avg # of iterations =  3.7

     total cpu time spent up to now is       47.9 secs

     total energy              =    -476.87211185 Ry
     Harris-Foulkes estimate   =    -477.10433984 Ry
     estimated scf accuracy    <       0.54218060 Ry

     iteration #  4     ecut=    40.00 Ry     beta=0.70
     CG style diagonalization
     ethr =  1.47E-03,  avg # of iterations =  3.3

     total cpu time spent up to now is       49.4 secs

     total energy              =    -476.93226912 Ry
     Harris-Foulkes estimate   =    -476.94688468 Ry
     estimated scf accuracy    <       0.03052005 Ry

     iteration #  5     ecut=    40.00 Ry     beta=0.70
     CG style diagonalization
     ethr =  8.25E-05,  avg # of iterations =  4.2

     total cpu time spent up to now is       51.4 secs

     total energy              =    -476.94461487 Ry
     Harris-Foulkes estimate   =    -476.94515986 Ry
     estimated scf accuracy    <       0.00207867 Ry

     iteration #  6     ecut=    40.00 Ry     beta=0.70
     CG style diagonalization
     c_bands:  1 eigenvalues not converged
     ethr =  5.62E-06,  avg # of iterations =  3.9

     total cpu time spent up to now is       53.2 secs

     total energy              =    -476.94415249 Ry
     Harris-Foulkes estimate   =    -476.94507376 Ry
     estimated scf accuracy    <       0.00185977 Ry

     iteration #  7     ecut=    40.00 Ry     beta=0.70
     CG style diagonalization
     ethr =  5.03E-06,  avg # of iterations =  3.3

     total cpu time spent up to now is       54.7 secs

     End of self-consistent calculation

     Number of k-points >= 100: set verbosity='high' to print the bands.

     the Fermi energy is    22.3183 ev

!    total energy              =    -476.94452601 Ry
     Harris-Foulkes estimate   =    -476.94453430 Ry
     estimated scf accuracy    <       0.00001023 Ry

     The total energy is the sum of the following terms:

     one-electron contribution =    -147.98872845 Ry
     hartree contribution      =      90.19642546 Ry
     xc contribution           =     -42.67250426 Ry
     ewald contribution        =    -376.36117716 Ry
     smearing contrib. (-TS)   =      -0.11854160 Ry

     convergence has been achieved in   7 iterations

     Forces acting on atoms (Ry/au):

     atom    1 type  1   force =     0.00000000    0.00000000    0.00000000
     atom    2 type  2   force =     0.00000000    0.00000000    0.00000000

     Total force =     0.000000     Total SCF correction =     0.000000


     entering subroutine stress ...

          total   stress  (Ry/bohr**3)                   (kbar)     P=-1315.47
  -0.00898296   0.00000000   0.00000000      -1321.44      0.00      0.00
   0.00000000  -0.00898296   0.00000000          0.00  -1321.44      0.00
   0.00000000   0.00000000  -0.00886116          0.00      0.00  -1303.52


     number of scf cycles    =   2
     number of bfgs steps    =   1

     enthalpy old            =    -477.1357002132 Ry
     enthalpy new            =    -476.9445260131 Ry

     CASE: enthalpy_new > enthalpy_old

     new trust radius        =       0.2241558128 bohr

     trust_radius < trust_radius_min

     resetting bfgs history

     new conv_thr            =       0.0001000000 Ry

     new unit-cell volume =    307.76222 a.u.^3 (    45.60565 Ang^3 )

CELL_PARAMETERS (alat=  5.41249258)
   1.164747328   0.000000000   0.000000000
   0.000000000   1.164747328   0.000000000
   0.000000000   0.000000000   1.430737340

ATOMIC_POSITIONS (crystal)
Cu       0.500000000   0.500000000   0.500000000
Au       0.000000000   0.000000000   0.000000000



     Writing output data file Prototype-La-tP2-AuCu.save
     NEW-OLD atomic charge density approx. for the potential
     NEW k-points: (use verbosity='high' to print them)

     total cpu time spent up to now is       57.3 secs

     Self-consistent Calculation

     iteration #  1     ecut=    40.00 Ry     beta=0.70
     CG style diagonalization
     c_bands:  1 eigenvalues not converged
     c_bands:  1 eigenvalues not converged
     c_bands:  1 eigenvalues not converged
     c_bands:  1 eigenvalues not converged
     ethr =  1.00E-06,  avg # of iterations =  7.5

     total cpu time spent up to now is       60.8 secs

     total energy              =    -476.99332697 Ry
     Harris-Foulkes estimate   =    -477.08737725 Ry
     estimated scf accuracy    <       0.11761531 Ry

     iteration #  2     ecut=    40.00 Ry     beta=0.70
     CG style diagonalization
     ethr =  3.18E-04,  avg # of iterations =  3.7

     total cpu time spent up to now is       62.5 secs

     total energy              =    -477.02747721 Ry
     Harris-Foulkes estimate   =    -477.03949285 Ry
     estimated scf accuracy    <       0.01693723 Ry

     iteration #  3     ecut=    40.00 Ry     beta=0.70
     CG style diagonalization
     ethr =  4.58E-05,  avg # of iterations =  3.7

     total cpu time spent up to now is       64.2 secs

     total energy              =    -477.03195845 Ry
     Harris-Foulkes estimate   =    -477.03358549 Ry
     estimated scf accuracy    <       0.00330653 Ry

     iteration #  4     ecut=    40.00 Ry     beta=0.70
     CG style diagonalization
     ethr =  8.94E-06,  avg # of iterations =  3.3

     total cpu time spent up to now is       65.8 secs

     End of self-consistent calculation

     Number of k-points >= 100: set verbosity='high' to print the bands.

     the Fermi energy is    23.1914 ev

!    total energy              =    -477.03261326 Ry
     Harris-Foulkes estimate   =    -477.03263223 Ry
     estimated scf accuracy    <       0.00002726 Ry

     The total energy is the sum of the following terms:

     one-electron contribution =    -141.85853738 Ry
     hartree contribution      =      88.32919685 Ry
     xc contribution           =     -42.77818865 Ry
     ewald contribution        =    -380.61196767 Ry
     smearing contrib. (-TS)   =      -0.11311641 Ry

     convergence has been achieved in   4 iterations

     Forces acting on atoms (Ry/au):

     atom    1 type  1   force =     0.00000000    0.00000000    0.00000000
     atom    2 type  2   force =     0.00000000    0.00000000    0.00000000

     Total force =     0.000000     Total SCF correction =     0.000000


     entering subroutine stress ...

          total   stress  (Ry/bohr**3)                   (kbar)     P=-1182.04
  -0.00808495   0.00000000   0.00000000      -1189.34      0.00      0.00
   0.00000000  -0.00808495   0.00000000          0.00  -1189.34      0.00
   0.00000000   0.00000000  -0.00793624          0.00      0.00  -1167.46


     number of scf cycles    =   3
     number of bfgs steps    =   1

     enthalpy old            =    -477.1357002132 Ry
     enthalpy new            =    -477.0326132619 Ry

     CASE: enthalpy_new > enthalpy_old

     new trust radius        =       0.2235253577 bohr

     trust_radius < trust_radius_min

     resetting bfgs history

     Message from routine bfgs:
     history already reset at previous step: stopping
     new conv_thr            =       0.0001000000 Ry

     new unit-cell volume =    308.28809 a.u.^3 (    45.68358 Ang^3 )

CELL_PARAMETERS (alat=  5.41249258)
   1.165983182   0.000000000   0.000000000
   0.000000000   1.165983182   0.000000000
   0.000000000   0.000000000   1.430145515

ATOMIC_POSITIONS (crystal)
Cu       0.500000000   0.500000000   0.500000000
Au       0.000000000   0.000000000   0.000000000



     Writing output data file Prototype-La-tP2-AuCu.save
     NEW-OLD atomic charge density approx. for the potential
     NEW k-points: (use verbosity='high' to print them)

     total cpu time spent up to now is       68.2 secs

     Self-consistent Calculation

     iteration #  1     ecut=    40.00 Ry     beta=0.70
     CG style diagonalization
     ethr =  1.00E-06,  avg # of iterations =  4.6

     total cpu time spent up to now is       70.7 secs

     total energy              =    -477.02818175 Ry
     Harris-Foulkes estimate   =    -477.02854290 Ry
     estimated scf accuracy    <       0.00045677 Ry

     iteration #  2     ecut=    40.00 Ry     beta=0.70
     CG style diagonalization
     ethr =  1.23E-06,  avg # of iterations =  3.6

     total cpu time spent up to now is       72.4 secs

     End of self-consistent calculation

     Number of k-points >= 100: set verbosity='high' to print the bands.

     the Fermi energy is    23.1399 ev

!    total energy              =    -477.02827591 Ry
     Harris-Foulkes estimate   =    -477.02836636 Ry
     estimated scf accuracy    <       0.00009633 Ry

     The total energy is the sum of the following terms:

     one-electron contribution =    -142.09679987 Ry
     hartree contribution      =      88.35163723 Ry
     xc contribution           =     -42.76735727 Ry
     ewald contribution        =    -380.40260902 Ry
     smearing contrib. (-TS)   =      -0.11314698 Ry

     convergence has been achieved in   2 iterations

     Forces acting on atoms (Ry/au):

     atom    1 type  1   force =     0.00000000    0.00000000    0.00000000
     atom    2 type  2   force =     0.00000000    0.00000000    0.00000000

     Total force =     0.000000     Total SCF correction =     0.000000


     entering subroutine stress ...

          total   stress  (Ry/bohr**3)                   (kbar)     P=-1212.98
  -0.00833936   0.00000000   0.00000000      -1226.76      0.00      0.00
   0.00000000  -0.00833936   0.00000000          0.00  -1226.76      0.00
   0.00000000   0.00000000  -0.00805826          0.00      0.00  -1185.41


     The maximum number of steps has been reached.

     End of BFGS Geometry Optimization
Begin final coordinates
     new unit-cell volume =    308.28809 a.u.^3 (    45.68358 Ang^3 )

CELL_PARAMETERS (alat=  5.41249258)
   1.165983182   0.000000000   0.000000000
   0.000000000   1.165983182   0.000000000
   0.000000000   0.000000000   1.430145515

ATOMIC_POSITIONS (crystal)
Cu       0.500000000   0.500000000   0.500000000
Au       0.000000000   0.000000000   0.000000000
End final coordinates



     A final scf calculation at the relaxed structure.
     The G-vectors are recalculated for the final unit cell
     Results may differ from those at the preceding step.
 
     Parallelization info
     --------------------
     sticks:   dense  smooth     PW     G-vecs:    dense   smooth      PW
     Min         126     126     40                 2628     2628     450
     Max         127     127     41                 2631     2631     451
     Sum         505     505    161                10519    10519    1801
 


     bravais-lattice index     =            0
     lattice parameter (alat)  =       5.4125  a.u.
     unit-cell volume          =     308.2881 (a.u.)^3
     number of atoms/cell      =            2
     number of atomic types    =            2
     number of electrons       =        37.00
     number of Kohn-Sham states=           23
     kinetic-energy cutoff     =      40.0000  Ry
     charge density cutoff     =     160.0000  Ry
     convergence threshold     =      1.0E-04
     mixing beta               =       0.7000
     number of iterations used =            8  plain     mixing
     Exchange-correlation      = SLA-PZ-NOGX-NOGC ( 1 1 0 0 0)
     EXX-fraction              =        0.00

     celldm(1)=   5.412493  celldm(2)=   0.000000  celldm(3)=   0.000000
     celldm(4)=   0.000000  celldm(5)=   0.000000  celldm(6)=   0.000000

     crystal axes: (cart. coord. in units of alat)
               a(1) = (   1.165983   0.000000   0.000000 )  
               a(2) = (   0.000000   1.165983   0.000000 )  
               a(3) = (   0.000000   0.000000   1.430146 )  

     reciprocal axes: (cart. coord. in units 2 pi/alat)
               b(1) = (  0.857645  0.000000  0.000000 )  
               b(2) = (  0.000000  0.857645  0.000000 )  
               b(3) = (  0.000000  0.000000  0.699230 )  


     PseudoPot. # 1 for Nd read from file:
     /home/cwx6513/pp.La/Nd.UPF
     MD5 check sum: c66c5b6abe7b5840ced9b1e244e3bed6
     Pseudo is Norm-conserving, Zval = 14.0
     Generated in analytical, separable form
     Using radial grid of 1257 points,  6 beta functions with: 
                l(1) =   0
                l(2) =   0
                l(3) =   1
                l(4) =   1
                l(5) =   2
                l(6) =   3

     PseudoPot. # 2 for Tm read from file:
     /home/cwx6513/pp.La/Tm.UPF
     MD5 check sum: 245516e0878b5372ceeb9443ded2c4e1
     Pseudo is Norm-conserving, Zval = 23.0
     Generated in analytical, separable form
     Using radial grid of 1269 points,  6 beta functions with: 
                l(1) =   0
                l(2) =   0
                l(3) =   1
                l(4) =   1
                l(5) =   2
                l(6) =   3

     atomic species   valence    mass     pseudopotential
        Cu            14.00    63.54600     Nd( 1.00)
        Au            23.00   196.96600     Tm( 1.00)

     16 Sym. Ops., with inversion, found



   Cartesian axes

     site n.     atom                  positions (alat units)
         1           Cu  tau(   1) = (   0.5829916   0.5829916   0.7150728  )
         2           Au  tau(   2) = (   0.0000000   0.0000000   0.0000000  )

     number of k points=   100  gaussian smearing, width (Ry)=  0.1000

     Number of k-points >= 100: set verbosity='high' to print them.

     Dense  grid:    10519 G-vectors     FFT dimensions: (  25,  25,  32)

     Largest allocated arrays     est. size (Mb)     dimensions
        Kohn-Sham Wavefunctions         0.12 Mb     (    342,   23)
        NL pseudopotentials             0.21 Mb     (    342,   40)
        Each V/rho on FFT grid          0.08 Mb     (   5000)
        Each G-vector array             0.02 Mb     (   2630)
        G-vector shells                 0.01 Mb     (    695)
     Largest temporary arrays     est. size (Mb)     dimensions
        Each subspace H/S matrix        0.01 Mb     (  23,  23)
        Each <psi_i|beta_j> matrix      0.01 Mb     (     40,   23)
        Arrays for rho mixing           0.61 Mb     (   5000,   8)

     Initial potential from superposition of free atoms

     Starting from uniform charge
     Starting wfc are    0 randomized atomic wfcs

     Writing output data file Prototype-La-tP2-AuCu.save

     total cpu time spent up to now is       73.8 secs

     Self-consistent Calculation

     iteration #  1     ecut=    40.00 Ry     beta=0.70
     CG style diagonalization
     c_bands:  3 eigenvalues not converged
     c_bands:  4 eigenvalues not converged
     c_bands:  4 eigenvalues not converged
     c_bands:  1 eigenvalues not converged
     c_bands:  1 eigenvalues not converged
     c_bands:  1 eigenvalues not converged
     c_bands:  1 eigenvalues not converged
     c_bands:  1 eigenvalues not converged
     c_bands:  1 eigenvalues not converged
     c_bands:  1 eigenvalues not converged
     c_bands:  5 eigenvalues not converged
     c_bands:  5 eigenvalues not converged
     c_bands:  2 eigenvalues not converged
     c_bands:  1 eigenvalues not converged
     c_bands:  1 eigenvalues not converged
     c_bands:  1 eigenvalues not converged
     c_bands:  1 eigenvalues not converged
     c_bands:  2 eigenvalues not converged
     c_bands:  3 eigenvalues not converged
     c_bands:  1 eigenvalues not converged
     c_bands:  1 eigenvalues not converged
     c_bands:  4 eigenvalues not converged
     c_bands:  4 eigenvalues not converged
     c_bands:  1 eigenvalues not converged
     c_bands:  1 eigenvalues not converged
     c_bands:  1 eigenvalues not converged
     c_bands:  1 eigenvalues not converged
     c_bands:  1 eigenvalues not converged
     c_bands:  1 eigenvalues not converged
     c_bands:  1 eigenvalues not converged
     c_bands:  1 eigenvalues not converged
     c_bands:  1 eigenvalues not converged
     c_bands:  1 eigenvalues not converged
     c_bands:  1 eigenvalues not converged
     c_bands:  1 eigenvalues not converged
     c_bands:  1 eigenvalues not converged
     c_bands:  4 eigenvalues not converged
     c_bands:  4 eigenvalues not converged
     c_bands:  1 eigenvalues not converged
     c_bands:  1 eigenvalues not converged
     c_bands:  1 eigenvalues not converged
     c_bands:  2 eigenvalues not converged
     c_bands:  5 eigenvalues not converged
     c_bands:  2 eigenvalues not converged
     c_bands:  1 eigenvalues not converged
     c_bands:  1 eigenvalues not converged
     c_bands:  1 eigenvalues not converged
     c_bands:  4 eigenvalues not converged
     c_bands:  4 eigenvalues not converged
     c_bands:  2 eigenvalues not converged
     c_bands:  1 eigenvalues not converged
     c_bands:  1 eigenvalues not converged
     c_bands:  1 eigenvalues not converged
     c_bands:  1 eigenvalues not converged
     c_bands:  5 eigenvalues not converged
     c_bands:  1 eigenvalues not converged
     c_bands:  3 eigenvalues not converged
     c_bands:  1 eigenvalues not converged
     c_bands:  2 eigenvalues not converged
     c_bands:  1 eigenvalues not converged
     c_bands:  3 eigenvalues not converged
     c_bands:  1 eigenvalues not converged
     c_bands:  1 eigenvalues not converged
     c_bands:  3 eigenvalues not converged
     c_bands:  2 eigenvalues not converged
     c_bands:  1 eigenvalues not converged
     c_bands:  1 eigenvalues not converged
     c_bands:  4 eigenvalues not converged
     ethr =  1.00E-06,  avg # of iterations = 33.5

     total cpu time spent up to now is       92.7 secs

     total energy              =    -202.92804100 Ry
     Harris-Foulkes estimate   =    -680.17161548 Ry
     estimated scf accuracy    <     570.10800025 Ry

     iteration #  2     ecut=    40.00 Ry     beta=0.70
     CG style diagonalization
     c_bands:  1 eigenvalues not converged
     c_bands:  1 eigenvalues not converged
     c_bands:  1 eigenvalues not converged
     c_bands:  1 eigenvalues not converged
     c_bands:  1 eigenvalues not converged
     c_bands:  2 eigenvalues not converged
     c_bands:  2 eigenvalues not converged
     c_bands:  2 eigenvalues not converged
     c_bands:  1 eigenvalues not converged
     c_bands:  1 eigenvalues not converged
     c_bands:  1 eigenvalues not converged
     c_bands:  2 eigenvalues not converged
     c_bands:  2 eigenvalues not converged
     c_bands:  2 eigenvalues not converged
     c_bands:  1 eigenvalues not converged
     c_bands:  1 eigenvalues not converged
     c_bands:  1 eigenvalues not converged
     c_bands:  1 eigenvalues not converged
     c_bands:  1 eigenvalues not converged
     c_bands:  2 eigenvalues not converged
     c_bands:  1 eigenvalues not converged
     c_bands:  2 eigenvalues not converged
     c_bands:  1 eigenvalues not converged
     c_bands:  1 eigenvalues not converged
     c_bands:  2 eigenvalues not converged
     c_bands:  3 eigenvalues not converged
     c_bands:  2 eigenvalues not converged
     c_bands:  3 eigenvalues not converged
     c_bands:  1 eigenvalues not converged
     c_bands:  1 eigenvalues not converged
     c_bands:  2 eigenvalues not converged
     c_bands:  1 eigenvalues not converged
     c_bands:  1 eigenvalues not converged
     c_bands:  2 eigenvalues not converged
     c_bands:  2 eigenvalues not converged
     c_bands:  1 eigenvalues not converged
     c_bands:  2 eigenvalues not converged
     c_bands:  2 eigenvalues not converged
     c_bands:  1 eigenvalues not converged
     c_bands:  1 eigenvalues not converged
     c_bands:  5 eigenvalues not converged
     c_bands:  1 eigenvalues not converged
     c_bands:  2 eigenvalues not converged
     c_bands:  1 eigenvalues not converged
     c_bands:  3 eigenvalues not converged
     c_bands:  3 eigenvalues not converged
     c_bands:  1 eigenvalues not converged
     c_bands:  3 eigenvalues not converged
     c_bands:  3 eigenvalues not converged
     c_bands:  2 eigenvalues not converged
     c_bands:  2 eigenvalues not converged
     c_bands:  2 eigenvalues not converged
     c_bands:  1 eigenvalues not converged
     c_bands:  3 eigenvalues not converged
     c_bands:  1 eigenvalues not converged
     c_bands:  2 eigenvalues not converged
     c_bands:  4 eigenvalues not converged
     c_bands:  4 eigenvalues not converged
     c_bands:  3 eigenvalues not converged
     c_bands:  5 eigenvalues not converged
     c_bands:  5 eigenvalues not converged
     c_bands:  4 eigenvalues not converged
     c_bands:  1 eigenvalues not converged
     c_bands:  1 eigenvalues not converged
     c_bands:  2 eigenvalues not converged
     c_bands:  2 eigenvalues not converged
     c_bands:  2 eigenvalues not converged
     c_bands:  1 eigenvalues not converged
     ethr =  1.00E-02,  avg # of iterations = 13.3

     total cpu time spent up to now is      100.1 secs

     total energy              =    -352.49988270 Ry
     Harris-Foulkes estimate   =    -737.93007465 Ry
     estimated scf accuracy    <     768.18195130 Ry

     iteration #  3     ecut=    40.00 Ry     beta=0.70
     CG style diagonalization
     c_bands:  1 eigenvalues not converged
     c_bands:  1 eigenvalues not converged
     ethr =  1.00E-02,  avg # of iterations = 11.5

     total cpu time spent up to now is      107.0 secs

     total energy              =    -474.72732204 Ry
     Harris-Foulkes estimate   =    -485.81181703 Ry
     estimated scf accuracy    <      18.05094335 Ry

     iteration #  4     ecut=    40.00 Ry     beta=0.70
     CG style diagonalization
     ethr =  1.00E-02,  avg # of iterations =  4.7

     total cpu time spent up to now is      109.9 secs

     total energy              =    -477.73417778 Ry
     Harris-Foulkes estimate   =    -478.22847635 Ry
     estimated scf accuracy    <       0.99646448 Ry

     iteration #  5     ecut=    40.00 Ry     beta=0.70
     CG style diagonalization
     ethr =  2.69E-03,  avg # of iterations =  3.6

     total cpu time spent up to now is      112.1 secs

     total energy              =    -477.82614586 Ry
     Harris-Foulkes estimate   =    -477.89922410 Ry
     estimated scf accuracy    <       0.12006606 Ry

     iteration #  6     ecut=    40.00 Ry     beta=0.70
     CG style diagonalization
     c_bands:  1 eigenvalues not converged
     c_bands:  1 eigenvalues not converged
     ethr =  3.25E-04,  avg # of iterations =  4.6

     total cpu time spent up to now is      114.7 secs

     total energy              =    -477.87828816 Ry
     Harris-Foulkes estimate   =    -477.89483680 Ry
     estimated scf accuracy    <       0.03400139 Ry

     iteration #  7     ecut=    40.00 Ry     beta=0.70
     CG style diagonalization
     ethr =  9.19E-05,  avg # of iterations =  3.5

     total cpu time spent up to now is      116.7 secs

     total energy              =    -477.87958391 Ry
     Harris-Foulkes estimate   =    -477.88217184 Ry
     estimated scf accuracy    <       0.00377287 Ry

     iteration #  8     ecut=    40.00 Ry     beta=0.70
     CG style diagonalization
     c_bands:  1 eigenvalues not converged
     c_bands:  1 eigenvalues not converged
     c_bands:  1 eigenvalues not converged
     c_bands:  1 eigenvalues not converged
     c_bands:  1 eigenvalues not converged
     c_bands:  1 eigenvalues not converged
     c_bands:  1 eigenvalues not converged
     c_bands:  1 eigenvalues not converged
     c_bands:  1 eigenvalues not converged
     c_bands:  1 eigenvalues not converged
     ethr =  1.02E-05,  avg # of iterations =  4.7

     total cpu time spent up to now is      119.4 secs

     total energy              =    -477.88164951 Ry
     Harris-Foulkes estimate   =    -477.88225941 Ry
     estimated scf accuracy    <       0.00146054 Ry

     iteration #  9     ecut=    40.00 Ry     beta=0.70
     CG style diagonalization
     c_bands:  1 eigenvalues not converged
     c_bands:  1 eigenvalues not converged
     ethr =  3.95E-06,  avg # of iterations =  3.2

     total cpu time spent up to now is      121.5 secs

     total energy              =    -477.88165238 Ry
     Harris-Foulkes estimate   =    -477.88179193 Ry
     estimated scf accuracy    <       0.00022151 Ry

     iteration # 10     ecut=    40.00 Ry     beta=0.70
     CG style diagonalization
     c_bands:  1 eigenvalues not converged
     ethr =  5.99E-07,  avg # of iterations =  4.3

     total cpu time spent up to now is      124.4 secs

     End of self-consistent calculation

     Number of k-points >= 100: set verbosity='high' to print the bands.

     the Fermi energy is    23.0894 ev

!    total energy              =    -477.88174797 Ry
     Harris-Foulkes estimate   =    -477.88177071 Ry
     estimated scf accuracy    <       0.00002595 Ry

     The total energy is the sum of the following terms:

     one-electron contribution =    -143.69382200 Ry
     hartree contribution      =      89.21746336 Ry
     xc contribution           =     -42.88863654 Ry
     ewald contribution        =    -380.40260120 Ry
     smearing contrib. (-TS)   =      -0.11415159 Ry

     convergence has been achieved in  10 iterations

     Forces acting on atoms (Ry/au):

     atom    1 type  1   force =     0.00000000    0.00000000    0.00000000
     atom    2 type  2   force =     0.00000000    0.00000000    0.00000000

     Total force =     0.000000     Total SCF correction =     0.000000


     entering subroutine stress ...

          total   stress  (Ry/bohr**3)                   (kbar)     P= -305.87
  -0.00175441   0.00000000   0.00000000       -258.08      0.00      0.00
   0.00000000  -0.00175441   0.00000000          0.00   -258.08      0.00
   0.00000000   0.00000000  -0.00272897          0.00      0.00   -401.45


     Writing output data file Prototype-La-tP2-AuCu.save
 
     init_run     :      1.20s CPU      1.44s WALL (       2 calls)
     electrons    :    102.67s CPU    116.16s WALL (       5 calls)
     update_pot   :      0.42s CPU      0.43s WALL (       3 calls)
     forces       :      0.55s CPU      0.57s WALL (       5 calls)
     stress       :      1.45s CPU      1.51s WALL (       5 calls)

     Called by init_run:
     wfcinit      :      0.97s CPU      1.18s WALL (       2 calls)
     potinit      :      0.08s CPU      0.09s WALL (       2 calls)

     Called by electrons:
     c_bands      :     97.41s CPU    104.59s WALL (      32 calls)
     sum_band     :      5.16s CPU      5.72s WALL (      32 calls)
     v_of_rho     :      0.01s CPU      0.01s WALL (      37 calls)
     mix_rho      :      0.01s CPU      0.01s WALL (      32 calls)

     Called by c_bands:
     init_us_2    :      0.74s CPU      0.76s WALL (    7600 calls)
     ccgdiagg     :     84.30s CPU     89.48s WALL (    3336 calls)
     wfcrot       :     13.38s CPU     14.72s WALL (    3436 calls)

     Called by *cgdiagg:
     h_psi        :     66.11s CPU     72.72s WALL (  417110 calls)
     cdiaghg      :      0.51s CPU      0.69s WALL (    3436 calls)

     Called by h_psi:
     add_vuspsi   :      3.11s CPU      4.09s WALL (  417110 calls)

     General routines
     calbec       :     12.84s CPU     15.06s WALL (  831784 calls)
     fft          :      0.03s CPU      0.03s WALL (     171 calls)
     fftw         :     55.19s CPU     57.75s WALL ( 1059004 calls)
     davcio       :      0.44s CPU      1.51s WALL (   10800 calls)
 
     Parallel routines
     fft_scatter  :     22.01s CPU     23.71s WALL ( 1059175 calls)
 
     PWSCF        :  1m47.17s CPU     2m 5.14s WALL

 
   This run was terminated on:  17:38:50  22Mar2018            

=------------------------------------------------------------------------------=
   JOB DONE.
=------------------------------------------------------------------------------=
