
     Program PWSCF v.5.0.2 starts on 22Mar2018 at 18:41:46 

     This program is part of the open-source Quantum ESPRESSO suite
     for quantum simulation of materials; please cite
         "P. Giannozzi et al., J. Phys.:Condens. Matter 21 395502 (2009);
          URL http://www.quantum-espresso.org", 
     in publications or presentations arising from this work. More details at
     http://www.quantum-espresso.org/quote.php

     Parallel version (MPI), running on     4 processors
     R & G space division:  proc/nbgrp/npool/nimage =       4

     Current dimensions of program PWSCF are:
     Max number of different atomic species (ntypx) = 10
     Max number of k-points (npk) =  40000
     Max angular momentum in pseudopotentials (lmaxx) =  3
     Waiting for input...
     Reading input from standard input

     Subspace diagonalization in iterative solution of the eigenvalue problem:
     a serial algorithm will be used

 
     Parallelization info
     --------------------
     sticks:   dense  smooth     PW     G-vecs:    dense   smooth      PW
     Min         267     267     77                11587    11587    1762
     Max         268     268     79                11596    11596    1765
     Sum        1069    1069    313                46361    46361    7055
 


     bravais-lattice index     =            0
     lattice parameter (alat)  =       9.9235  a.u.
     unit-cell volume          =    1361.0366 (a.u.)^3
     number of atoms/cell      =           12
     number of atomic types    =            2
     number of electrons       =       160.00
     number of Kohn-Sham states=           96
     kinetic-energy cutoff     =      40.0000  Ry
     charge density cutoff     =     160.0000  Ry
     convergence threshold     =      1.0E-04
     mixing beta               =       0.7000
     number of iterations used =            8  plain     mixing
     Exchange-correlation      = SLA-PZ-NOGX-NOGC ( 1 1 0 0 0)
     EXX-fraction              =        0.00
     nstep                     =           50


     celldm(1)=   9.923489  celldm(2)=   0.000000  celldm(3)=   0.000000
     celldm(4)=   0.000000  celldm(5)=   0.000000  celldm(6)=   0.000000

     crystal axes: (cart. coord. in units of alat)
               a(1) = (   1.000000   0.000000   0.000000 )  
               a(2) = (  -0.500000   0.866025   0.000000 )  
               a(3) = (   0.000000   0.000000   1.608222 )  

     reciprocal axes: (cart. coord. in units 2 pi/alat)
               b(1) = (  1.000000  0.577350  0.000000 )  
               b(2) = (  0.000000  1.154701  0.000000 )  
               b(3) = (  0.000000  0.000000  0.621805 )  


     PseudoPot. # 1 for Sm read from file:
     /home/cwx6513/pp.La/Sm.UPF
     MD5 check sum: 5079e8b144a06bfcdbc14fb02b96ab09
     Pseudo is Norm-conserving, Zval = 16.0
     Generated in analytical, separable form
     Using radial grid of 1259 points,  6 beta functions with: 
                l(1) =   0
                l(2) =   0
                l(3) =   1
                l(4) =   1
                l(5) =   2
                l(6) =   3

     PseudoPot. # 2 for Ce read from file:
     /home/cwx6513/pp.La/Ce.UPF
     MD5 check sum: 44451aa79a44a00cf2bc029dc19922f6
     Pseudo is Norm-conserving, Zval = 12.0
     Generated in analytical, separable form
     Using radial grid of 1255 points,  6 beta functions with: 
                l(1) =   0
                l(2) =   0
                l(3) =   1
                l(4) =   1
                l(5) =   2
                l(6) =   3

     atomic species   valence    mass     pseudopotential
        Mg            16.00    24.30500     Sm( 1.00)
        Zn            12.00    65.39000     Ce( 1.00)

     24 Sym. Ops., with inversion, found (12 have fractional translation)



   Cartesian axes

     site n.     atom                  positions (alat units)
         1           Mg  tau(   1) = (  -0.0000005   0.5773506   0.1003820  )
         2           Mg  tau(   2) = (   0.5000005   0.2886748   0.9044931  )
         3           Mg  tau(   3) = (   0.5000005   0.2886748   1.5078402  )
         4           Mg  tau(   4) = (  -0.0000005   0.5773506   0.7037291  )
         5           Zn  tau(   5) = (   0.0000000   0.0000000   0.0000000  )
         6           Zn  tau(   6) = (   0.0000000   0.0000000   0.8041111  )
         7           Zn  tau(   7) = (   0.0000000   0.2950739   1.2061667  )
         8           Zn  tau(   8) = (   0.7444585   0.1475370   0.4020556  )
         9           Zn  tau(   9) = (   0.2555415   0.1475370   0.4020556  )
        10           Zn  tau(  10) = (   0.2444585   0.7184884   1.2061667  )
        11           Zn  tau(  11) = (  -0.2444585   0.7184884   1.2061667  )
        12           Zn  tau(  12) = (   0.5000000   0.5709515   0.4020556  )

     number of k points=    12  gaussian smearing, width (Ry)=  0.1000
                       cart. coord. in units 2pi/alat
        k(    1) = (   0.0000000   0.0000000   0.0000000), wk =   0.0833333
        k(    2) = (   0.0000000   0.0000000   0.1554512), wk =   0.1666667
        k(    3) = (   0.0000000   0.0000000  -0.3109023), wk =   0.0833333
        k(    4) = (   0.0000000   0.3849002   0.0000000), wk =   0.1666667
        k(    5) = (   0.0000000   0.3849002   0.1554512), wk =   0.3333333
        k(    6) = (   0.0000000   0.3849002  -0.3109023), wk =   0.1666667
        k(    7) = (  -0.5000000  -0.2886751   0.0000000), wk =   0.0833333
        k(    8) = (  -0.5000000  -0.2886751   0.1554512), wk =   0.1666667
        k(    9) = (  -0.5000000  -0.2886751  -0.3109023), wk =   0.0833333
        k(   10) = (  -0.5000000   0.0962250   0.0000000), wk =   0.1666667
        k(   11) = (  -0.5000000   0.0962250   0.1554512), wk =   0.3333333
        k(   12) = (  -0.5000000   0.0962250  -0.3109023), wk =   0.1666667

     Dense  grid:    46361 G-vectors     FFT dimensions: (  40,  40,  72)

     Largest allocated arrays     est. size (Mb)     dimensions
        Kohn-Sham Wavefunctions         2.17 Mb     (   1478,   96)
        NL pseudopotentials             5.41 Mb     (   1478,  240)
        Each V/rho on FFT grid          0.44 Mb     (  28800)
        Each G-vector array             0.09 Mb     (  11589)
        G-vector shells                 0.09 Mb     (  11589)
     Largest temporary arrays     est. size (Mb)     dimensions
        Each subspace H/S matrix        0.14 Mb     (  96,  96)
        Each <psi_i|beta_j> matrix      0.35 Mb     (    240,   96)
        Arrays for rho mixing           3.52 Mb     (  28800,   8)

     Initial potential from superposition of free atoms

     Starting from uniform charge
     Starting wfc are    0 randomized atomic wfcs

     total cpu time spent up to now is        3.0 secs

     Self-consistent Calculation

     iteration #  1     ecut=    40.00 Ry     beta=0.70
     CG style diagonalization
     ethr =  1.00E-02,  avg # of iterations = 16.5

     total cpu time spent up to now is       44.0 secs

     total energy              =    -972.95508151 Ry
     Harris-Foulkes estimate   =   -1365.15464035 Ry
     estimated scf accuracy    <     500.48853958 Ry

     iteration #  2     ecut=    40.00 Ry     beta=0.70
     CG style diagonalization
     c_bands:  4 eigenvalues not converged
     c_bands:  5 eigenvalues not converged
     c_bands:  3 eigenvalues not converged
     c_bands:  1 eigenvalues not converged
     c_bands:  1 eigenvalues not converged
     c_bands:  4 eigenvalues not converged
     c_bands:  2 eigenvalues not converged
     c_bands:  4 eigenvalues not converged
     c_bands:  1 eigenvalues not converged
     ethr =  1.00E-02,  avg # of iterations = 11.3

     total cpu time spent up to now is       74.9 secs

     total energy              =   -1059.96997408 Ry
     Harris-Foulkes estimate   =   -1454.62915979 Ry
     estimated scf accuracy    <     809.67465724 Ry

     iteration #  3     ecut=    40.00 Ry     beta=0.70
     CG style diagonalization
     ethr =  1.00E-02,  avg # of iterations = 11.0

     total cpu time spent up to now is      104.4 secs

     total energy              =   -1212.91206353 Ry
     Harris-Foulkes estimate   =   -1236.02650126 Ry
     estimated scf accuracy    <      42.40561662 Ry

     iteration #  4     ecut=    40.00 Ry     beta=0.70
     CG style diagonalization
     ethr =  1.00E-02,  avg # of iterations =  4.7

     total cpu time spent up to now is      116.7 secs

     total energy              =   -1220.98021809 Ry
     Harris-Foulkes estimate   =   -1223.36833002 Ry
     estimated scf accuracy    <       5.78626797 Ry

     iteration #  5     ecut=    40.00 Ry     beta=0.70
     CG style diagonalization
     ethr =  3.62E-03,  avg # of iterations =  3.9

     total cpu time spent up to now is      126.6 secs

     total energy              =   -1221.95897305 Ry
     Harris-Foulkes estimate   =   -1222.49089517 Ry
     estimated scf accuracy    <       1.16288155 Ry

     iteration #  6     ecut=    40.00 Ry     beta=0.70
     CG style diagonalization
     ethr =  7.27E-04,  avg # of iterations =  4.2

     total cpu time spent up to now is      137.4 secs

     total energy              =   -1222.27116400 Ry
     Harris-Foulkes estimate   =   -1222.29539272 Ry
     estimated scf accuracy    <       0.04931472 Ry

     iteration #  7     ecut=    40.00 Ry     beta=0.70
     CG style diagonalization
     c_bands:  1 eigenvalues not converged
     c_bands:  1 eigenvalues not converged
     c_bands:  1 eigenvalues not converged
     c_bands:  2 eigenvalues not converged
     c_bands:  2 eigenvalues not converged
     c_bands:  1 eigenvalues not converged
     ethr =  3.08E-05,  avg # of iterations =  5.7

     total cpu time spent up to now is      152.6 secs

     total energy              =   -1222.29535464 Ry
     Harris-Foulkes estimate   =   -1222.31785310 Ry
     estimated scf accuracy    <       0.06454540 Ry

     iteration #  8     ecut=    40.00 Ry     beta=0.70
     CG style diagonalization
     c_bands:  1 eigenvalues not converged
     ethr =  3.08E-05,  avg # of iterations =  3.5

     total cpu time spent up to now is      161.4 secs

     total energy              =   -1222.30351224 Ry
     Harris-Foulkes estimate   =   -1222.30528499 Ry
     estimated scf accuracy    <       0.00383915 Ry

     iteration #  9     ecut=    40.00 Ry     beta=0.70
     CG style diagonalization
     c_bands:  1 eigenvalues not converged
     c_bands:  1 eigenvalues not converged
     c_bands:  1 eigenvalues not converged
     c_bands:  2 eigenvalues not converged
     c_bands:  1 eigenvalues not converged
     ethr =  2.40E-06,  avg # of iterations =  4.8

     total cpu time spent up to now is      174.1 secs

     total energy              =   -1222.30495733 Ry
     Harris-Foulkes estimate   =   -1222.30514719 Ry
     estimated scf accuracy    <       0.00044370 Ry

     iteration # 10     ecut=    40.00 Ry     beta=0.70
     CG style diagonalization
     c_bands:  1 eigenvalues not converged
     c_bands:  1 eigenvalues not converged
     ethr =  2.77E-07,  avg # of iterations =  4.2

     total cpu time spent up to now is      184.7 secs

     End of self-consistent calculation

          k = 0.0000 0.0000 0.0000 (  5769 PWs)   bands (ev):

   -29.5756 -29.5502 -29.5103 -29.4848 -12.5274 -11.9975 -10.6284  -9.8065
    -9.7400  -9.7400  -9.7139  -9.7138  -4.9942  -4.9942  -4.9902  -4.9363
    -4.9363  -4.9046  -4.7187  -4.6907  -4.6907  -4.6873  -4.6480  -4.6480
     1.3197   2.4714   3.4735   5.0649   5.0649   5.4101   5.4102   5.5059
     5.5060   6.6800   7.6953   7.6954   7.7585   7.7585   8.4179   9.9437
    10.2773  10.2773  10.3254  10.3418  10.8902  10.8902  11.1248  11.1249
    20.1684  21.2819  21.4974  22.6657  22.6657  23.1753  23.2057  23.2058
    23.2318  23.2319  23.2520  23.6759  23.6759  23.6880  23.8895  23.8896
    24.1372  24.4044  24.4044  24.4329  24.6180  24.6180  25.6570  25.6570
    26.0662  26.0662  26.3584  26.4533  26.4533  26.6655  26.6655  26.7524
    27.4538  27.4538  28.3023  28.7084  28.7084  28.8202  28.8202  30.1694
    30.8286  30.8286  30.9568  31.1849  31.7194  31.9109  32.0678  32.0679

          k = 0.0000 0.0000 0.1555 (  5780 PWs)   bands (ev):

   -29.5727 -29.5558 -29.5047 -29.4878 -12.4693 -12.1059 -10.4794  -9.9104
    -9.7364  -9.7364  -9.7180  -9.7180  -4.9898  -4.9864  -4.9864  -4.9486
    -4.9485  -4.9256  -4.6982  -4.6827  -4.6827  -4.6809  -4.6528  -4.6528
     1.4018   2.0944   4.0631   5.0916   5.0916   5.2782   5.2783   5.7594
     5.7594   6.1151   6.9082   6.9082   8.5997   8.5997   8.8184   9.8005
    10.0193  10.0193  10.3271  10.3389  10.9613  10.9614  11.1064  11.1064
    20.2534  20.6615  22.5625  22.6604  22.6925  22.7096  22.7096  22.9683
    22.9683  23.2165  23.2166  23.7746  23.7747  23.8394  23.8394  24.4075
    24.5342  24.5342  24.5360  24.7448  24.7448  24.7730  25.5218  25.5218
    26.0223  26.0223  26.2365  26.5439  26.5735  26.5735  26.6869  26.6869
    27.8086  27.8086  28.0112  28.2428  28.2428  28.6518  28.6784  28.6784
    31.0433  31.1239  31.1355  31.1356  31.5606  31.9375  31.9379  32.3004

          k = 0.0000 0.0000-0.3109 (  5780 PWs)   bands (ev):

   -29.5653 -29.5653 -29.4951 -29.4951 -12.3101 -12.3101 -10.1756 -10.1756
    -9.7268  -9.7268  -9.7267  -9.7267  -4.9691  -4.9691  -4.9690  -4.9690
    -4.9690  -4.9690  -4.6773  -4.6773  -4.6644  -4.6644  -4.6644  -4.6644
     1.6578   1.6578   5.0825   5.0825   5.1661   5.1661   5.1661   5.1661
     6.2370   6.2370   6.2370   6.2370   9.3987   9.3987   9.4074   9.4074
     9.4074   9.4074  10.3340  10.3340  11.0514  11.0514  11.0515  11.0515
    20.4093  20.4093  22.2572  22.2572  22.7669  22.7669  22.7669  22.7669
    23.4077  23.4077  23.4078  23.4078  24.0541  24.0541  24.2714  24.2714
    24.2714  24.2714  25.1617  25.1617  25.1617  25.1617  25.2508  25.2508
    25.9370  25.9370  26.2793  26.2793  26.2793  26.2793  27.3097  27.3097
    27.3097  27.3097  27.7876  27.7876  28.4414  28.4414  28.4414  28.4414
    31.0964  31.0965  31.4502  31.4502  31.4502  31.4503  31.6167  31.6169

          k = 0.0000 0.3849 0.0000 (  5787 PWs)   bands (ev):

   -29.5619 -29.5360 -29.5239 -29.4987 -12.2366 -11.6157 -10.6980 -10.6429
   -10.3243  -9.7731  -9.7301  -9.3169  -5.0056  -4.9818  -4.9818  -4.9556
    -4.9269  -4.8573  -4.7670  -4.6740  -4.6735  -4.6557  -4.6080  -4.5993
     2.5068   3.4877   3.5819   5.2079   5.2383   5.5712   5.6431   5.9126
     6.3631   6.9967   7.4187   7.4393   7.6432   7.6703   7.8430   8.7862
     8.8125   9.1094   9.7548   9.8299  10.2941  10.6015  10.7396  10.9211
    21.3124  21.7773  21.9066  22.3591  22.4705  22.7480  22.8430  23.0406
    23.2153  23.3399  23.5352  23.8120  23.9829  24.1170  24.1386  24.1990
    24.5975  24.6587  24.6593  25.0039  25.1109  25.5186  25.6154  26.0450
    26.1458  26.7415  26.7719  26.8123  26.8597  27.1369  27.5673  27.8243
    28.2060  28.2412  28.4590  28.5519  28.8416  28.9427  29.0730  29.4041
    29.6600  29.7707  29.8085  31.0494  31.1580  31.3003  31.6724  31.8398

          k = 0.0000 0.3849 0.1555 (  5804 PWs)   bands (ev):

   -29.5596 -29.5433 -29.5170 -29.5011 -12.1705 -11.7469 -10.6970 -10.6735
   -10.1166  -9.7672  -9.7367  -9.4349  -5.0238  -4.9862  -4.9834  -4.9823
    -4.9063  -4.8699  -4.7335  -4.6820  -4.6558  -4.6478  -4.6143  -4.6067
     2.5556   3.0259   4.2220   5.0836   5.3586   5.6439   5.7933   5.8911
     6.4005   6.5058   6.7339   7.0173   7.9468   8.1221   8.3185   8.7939
     8.8882   9.1929   9.6041   9.9703  10.0501  10.5092  10.8088  10.9121
    21.4135  21.8100  21.9381  22.1797  22.5825  22.8496  22.9802  23.0747
    23.1910  23.3069  23.3797  23.6805  24.0102  24.0879  24.1463  24.4229
    24.5994  24.6476  24.8980  24.9198  25.2768  25.5129  25.5337  25.8907
    26.2283  26.3992  26.6177  26.7238  26.9563  27.4381  27.5466  27.7572
    27.9520  28.1688  28.2328  28.3916  28.7183  28.7408  29.0618  29.1958
    30.0190  30.0275  30.3798  30.6594  31.1382  31.4118  31.7108  31.9448

          k = 0.0000 0.3849-0.3109 (  5816 PWs)   bands (ev):

   -29.5530 -29.5530 -29.5077 -29.5077 -11.9866 -11.9865 -10.6922 -10.6922
    -9.7522  -9.7522  -9.7432  -9.7432  -5.0239  -5.0238  -4.9830  -4.9830
    -4.8855  -4.8855  -4.6967  -4.6967  -4.6313  -4.6313  -4.6273  -4.6273
     2.7155   2.7155   4.8333   4.8333   5.7233   5.7233   5.7963   5.7963
     6.1804   6.1804   6.5818   6.5818   8.1989   8.1989   8.6958   8.6958
     9.2371   9.2371   9.5581   9.5581  10.2633  10.2633  10.8792  10.8792
    21.7252  21.7252  21.9417  21.9417  22.8177  22.8177  22.9385  22.9385
    23.2886  23.2886  23.6971  23.6971  23.9009  23.9009  24.3956  24.3956
    24.4812  24.4812  25.2138  25.2138  25.2504  25.2504  25.7911  25.7911
    26.2045  26.2045  26.6567  26.6567  27.1102  27.1102  27.3705  27.3705
    27.9957  27.9957  28.1874  28.1874  28.8347  28.8347  29.0531  29.0531
    30.1093  30.1095  31.0534  31.0536  31.2050  31.2051  31.6418  31.6417

          k =-0.5000-0.2887 0.0000 (  5800 PWs)   bands (ev):

   -29.5536 -29.5321 -29.5285 -29.5065 -12.0876 -11.3753 -10.9592 -10.6478
   -10.6281  -9.7840  -9.7362  -9.2684  -5.0003  -4.9947  -4.9789  -4.9712
    -4.8928  -4.8139  -4.7974  -4.6990  -4.6551  -4.6403  -4.6010  -4.5998
     2.9974   3.6224   3.9148   5.1881   5.2695   5.5934   6.4331   6.4887
     6.7304   6.8356   7.1668   7.2228   7.4042   7.6603   7.6607   7.7041
     8.0952   8.6437   9.5505   9.6457  10.2992  10.7323  10.7753  10.8944
    20.9460  22.3856  22.5538  22.5840  22.7502  22.8811  22.9039  22.9395
    23.0207  23.3479  23.3510  23.4811  23.5343  23.6462  23.8897  24.3133
    24.3612  24.8569  25.0286  25.2344  25.4127  25.4791  25.8693  25.9184
    26.6449  26.6598  26.8397  27.0331  27.0827  27.2166  27.5688  27.6447
    27.6714  29.0492  29.2950  29.3074  29.3861  29.5534  29.5934  29.9327
    30.0946  30.3216  30.4139  30.6904  30.9139  31.0747  31.0814  31.4252

          k =-0.5000-0.2887 0.1555 (  5822 PWs)   bands (ev):

   -29.5520 -29.5392 -29.5213 -29.5088 -12.0141 -11.5273 -10.9545 -10.8701
   -10.2067  -9.7775  -9.7436  -9.3985  -5.0270  -5.0055  -4.9938  -4.9827
    -4.8670  -4.8256  -4.7559  -4.6991  -4.6483  -4.6361  -4.6096  -4.6038
     3.0315   3.3615   4.3318   5.1747   5.3274   5.6906   6.3057   6.4458
     6.4555   6.6611   7.1944   7.2395   7.3526   7.4852   7.6738   7.6999
     8.4380   8.9340   9.3938   9.9049  10.0497  10.6628  10.7990  10.8874
    21.1291  22.1757  22.5827  22.6095  22.6619  22.8812  22.8845  22.9202
    22.9958  23.2451  23.6053  23.7353  23.7544  23.8036  24.0708  24.3583
    24.6531  24.7094  24.9382  25.0068  25.1797  25.2856  25.6395  25.8219
    26.1674  26.5980  26.7135  27.0393  27.0820  27.2773  27.5737  27.8371
    28.1420  28.3543  28.9978  29.1010  29.4401  29.6331  29.8637  30.3190
    30.3719  30.4594  30.5196  30.6770  30.7302  31.2741  31.3310  31.5362

          k =-0.5000-0.2887-0.3109 (  5804 PWs)   bands (ev):

   -29.5468 -29.5468 -29.5136 -29.5136 -11.8061 -11.8061 -10.9349 -10.9349
    -9.7604  -9.7604  -9.7462  -9.7462  -5.0379  -5.0379  -4.9880  -4.9880
    -4.8378  -4.8378  -4.7103  -4.7103  -4.6275  -4.6274  -4.6209  -4.6209
     3.1437   3.1438   4.8594   4.8594   5.7776   5.7776   5.9596   5.9596
     6.5342   6.5342   7.2862   7.2862   7.2910   7.2910   7.6896   7.6896
     8.9774   8.9774   9.5157   9.5157  10.3459  10.3459  10.8617  10.8617
    21.6093  21.6093  22.5853  22.5853  22.8223  22.8223  22.9034  22.9034
    23.1259  23.1259  23.8445  23.8445  23.9852  23.9852  24.2350  24.2350
    24.7308  24.7308  25.0315  25.0315  25.1384  25.1384  25.4414  25.4414
    26.0489  26.0489  26.8971  26.8971  27.0432  27.0432  27.5270  27.5270
    28.7908  28.7908  28.8173  28.8173  29.2560  29.2560  30.4046  30.4046
    30.5308  30.5309  30.7707  30.7708  30.8520  30.8520  31.8549  31.8821

          k =-0.5000 0.0962 0.0000 (  5827 PWs)   bands (ev):

   -29.5539 -29.5321 -29.5285 -29.5069 -12.0859 -11.3808 -10.9589 -10.6483
   -10.6256  -9.7752  -9.7468  -9.2666  -5.0025  -4.9746  -4.9745  -4.9668
    -4.9127  -4.8160  -4.8139  -4.7104  -4.6560  -4.6284  -4.6099  -4.5946
     3.1121   3.6229   4.0243   5.0776   5.2392   5.5153   5.5960   6.5270
     6.8848   6.9453   6.9900   7.4175   7.4672   7.6600   7.7027   7.9460
     8.6543   8.9197   9.7225   9.7452  10.1929  10.3141  10.3768  10.7493
    21.2193  22.1255  22.3641  22.4604  22.5862  22.8020  22.8374  22.9308
    23.0234  23.1738  23.5377  23.7802  23.7813  23.8318  24.0300  24.1710
    24.7669  25.0253  25.4119  25.4479  25.5024  25.6416  25.9018  26.1590
    26.2802  26.5571  26.8008  27.0066  27.0858  27.1933  27.5854  27.6418
    28.1787  28.2014  28.6176  28.7187  28.9836  29.2686  29.5071  29.6631
    29.7793  30.1456  30.3666  30.8448  30.8967  31.0566  31.1856  31.3161

          k =-0.5000 0.0962 0.1555 (  5825 PWs)   bands (ev):

   -29.5521 -29.5393 -29.5212 -29.5088 -12.0123 -11.5295 -10.9549 -10.8733
   -10.2039  -9.7708  -9.7509  -9.3962  -5.0312  -5.0083  -4.9722  -4.9693
    -4.8828  -4.8373  -4.7608  -4.7087  -4.6513  -4.6236  -4.6149  -4.5983
     3.1426   3.4269   4.3559   4.9653   5.4056   5.6022   5.6999   6.3716
     6.5827   6.7296   6.9585   7.0270   7.4567   7.5653   8.1584   8.2660
     8.7755   9.0066   9.5984   9.8355  10.0353  10.3746  10.3912  10.6528
    21.3830  22.1012  22.3558  22.4693  22.6335  22.6848  22.8728  23.0580
    23.0607  23.2096  23.3775  23.6600  23.7677  23.8582  24.3694  24.6836
    24.8051  24.8885  25.0713  25.3012  25.3966  25.6003  25.8480  25.8819
    26.2104  26.5733  26.7363  26.9425  27.3345  27.3759  27.6899  27.7808
    27.9333  28.1452  28.5214  28.6358  28.6932  29.0840  29.4628  29.5244
    29.8718  30.1309  30.5157  30.6365  30.9437  31.2496  31.3268  31.4639

          k =-0.5000 0.0962-0.3109 (  5824 PWs)   bands (ev):

   -29.5469 -29.5469 -29.5137 -29.5137 -11.8056 -11.8056 -10.9382 -10.9381
    -9.7618  -9.7618  -9.7423  -9.7423  -5.0428  -5.0428  -4.9720  -4.9720
    -4.8524  -4.8524  -4.7174  -4.7174  -4.6346  -4.6346  -4.6097  -4.6097
     3.2411   3.2411   4.7564   4.7564   5.7263   5.7263   5.9397   5.9397
     6.2999   6.2999   6.9625   6.9625   7.4898   7.4898   8.4393   8.4393
     9.0497   9.0497   9.5343   9.5343  10.2840  10.2840  10.4590  10.4590
    21.8090  21.8090  22.3260  22.3260  22.6909  22.6909  22.9850  22.9850
    23.1136  23.1136  23.5745  23.5745  24.1849  24.1849  24.4616  24.4616
    24.7070  24.7070  25.0553  25.0553  25.4649  25.4649  25.8372  25.8371
    26.3995  26.3995  26.7664  26.7664  27.2894  27.2894  27.6157  27.6157
    28.1303  28.1303  28.3204  28.3204  29.1209  29.1209  29.5681  29.5681
    29.7644  29.7644  30.4917  30.4917  31.3370  31.3370  31.6827  31.6830

     the Fermi energy is    27.7956 ev

!    total energy              =   -1222.30510469 Ry
     Harris-Foulkes estimate   =   -1222.30514784 Ry
     estimated scf accuracy    <       0.00005319 Ry

     The total energy is the sum of the following terms:

     one-electron contribution =     128.44888720 Ry
     hartree contribution      =      87.42841817 Ry
     xc contribution           =    -152.57833542 Ry
     ewald contribution        =   -1285.01023813 Ry
     smearing contrib. (-TS)   =      -0.59383651 Ry

     convergence has been achieved in  10 iterations

     Forces acting on atoms (Ry/au):

     atom    1 type  1   force =     0.00000000    0.00000000   -0.00919006
     atom    2 type  1   force =     0.00000000    0.00000000   -0.00919006
     atom    3 type  1   force =     0.00000000    0.00000000    0.00919006
     atom    4 type  1   force =     0.00000000    0.00000000    0.00919006
     atom    5 type  2   force =     0.00000000    0.00000000    0.00000000
     atom    6 type  2   force =     0.00000000    0.00000000    0.00000000
     atom    7 type  2   force =     0.00000000    0.10108338    0.00000000
     atom    8 type  2   force =    -0.08754078    0.05054169    0.00000000
     atom    9 type  2   force =     0.08754078    0.05054169    0.00000000
     atom   10 type  2   force =    -0.08754078   -0.05054169    0.00000000
     atom   11 type  2   force =     0.08754078   -0.05054169    0.00000000
     atom   12 type  2   force =     0.00000000   -0.10108338    0.00000000

     Total force =     0.248284     Total SCF correction =     0.000000


     entering subroutine stress ...

          total   stress  (Ry/bohr**3)                   (kbar)     P= 1039.66
   0.00707832   0.00000000   0.00000000       1041.26      0.00      0.00
   0.00000000   0.00707832   0.00000000          0.00   1041.26      0.00
   0.00000000   0.00000000   0.00704568          0.00      0.00   1036.45


     BFGS Geometry Optimization

     number of scf cycles    =   1
     number of bfgs steps    =   0

     enthalpy new            =   -1222.3051046868 Ry

     new trust radius        =       0.5000000000 bohr
     new conv_thr            =       0.0001000000 Ry

     new unit-cell volume =   1656.41689 a.u.^3 (   245.45566 Ang^3 )

CELL_PARAMETERS (alat=  9.92348860)
   1.067764947   0.000000000   0.000000000
  -0.533882474   0.924711570   0.000000000
   0.000000000   0.000000000   1.716700660

ATOMIC_POSITIONS (crystal)
Mg       0.333333000   0.666667000   0.062197483
Mg       0.666667000   0.333333000   0.562197483
Mg       0.666667000   0.333333000   0.937802517
Mg       0.333333000   0.666667000   0.437802517
Zn       0.000000000   0.000000000   0.000000000
Zn       0.000000000   0.000000000   0.500000000
Zn       0.172613109   0.345226218   0.750000000
Zn       0.827386891   0.172613109   0.250000000
Zn       0.345226218   0.172613109   0.250000000
Zn       0.654773782   0.827386891   0.750000000
Zn       0.172613109   0.827386891   0.750000000
Zn       0.827386891   0.654773782   0.250000000



     Writing output data file Prototype-La-hP12-MgZn2.save
     NEW-OLD atomic charge density approx. for the potential
     NEW k-points:
        k(    1) = (   0.0000000   0.0000000   0.0000000), wk =   0.0833333
        k(    2) = (   0.0000000   0.0000000   0.1456282), wk =   0.1666667
        k(    3) = (   0.0000000   0.0000000  -0.2912564), wk =   0.0833333
        k(    4) = (   0.0000000   0.3604728   0.0000000), wk =   0.1666667
        k(    5) = (   0.0000000   0.3604728   0.1456282), wk =   0.3333333
        k(    6) = (   0.0000000   0.3604728  -0.2912564), wk =   0.1666667
        k(    7) = (  -0.4682679  -0.2703546   0.0000000), wk =   0.0833333
        k(    8) = (  -0.4682679  -0.2703546   0.1456282), wk =   0.1666667
        k(    9) = (  -0.4682679  -0.2703546  -0.2912564), wk =   0.0833333
        k(   10) = (  -0.4682679   0.0901182   0.0000000), wk =   0.1666667
        k(   11) = (  -0.4682679   0.0901182   0.1456282), wk =   0.3333333
        k(   12) = (  -0.4682679   0.0901182  -0.2912564), wk =   0.1666667

     total cpu time spent up to now is      189.3 secs

     Self-consistent Calculation

     iteration #  1     ecut=    40.00 Ry     beta=0.70
     CG style diagonalization
     c_bands:  1 eigenvalues not converged
     c_bands:  1 eigenvalues not converged
     c_bands:  1 eigenvalues not converged
     ethr =  1.00E-06,  avg # of iterations = 20.4

     total cpu time spent up to now is      241.9 secs

     total energy              =   -1214.06259246 Ry
     Harris-Foulkes estimate   =   -1228.67047395 Ry
     estimated scf accuracy    <      18.33217521 Ry

     iteration #  2     ecut=    40.00 Ry     beta=0.70
     CG style diagonalization
     ethr =  1.00E-02,  avg # of iterations =  4.9

     total cpu time spent up to now is      254.9 secs

     total energy              =   -1209.14640723 Ry
     Harris-Foulkes estimate   =   -1241.30352848 Ry
     estimated scf accuracy    <      97.81742003 Ry

     iteration #  3     ecut=    40.00 Ry     beta=0.70
     CG style diagonalization
     ethr =  1.00E-02,  avg # of iterations =  5.1

     total cpu time spent up to now is      268.2 secs

     total energy              =   -1222.54888582 Ry
     Harris-Foulkes estimate   =   -1223.62985962 Ry
     estimated scf accuracy    <       2.46775937 Ry

     iteration #  4     ecut=    40.00 Ry     beta=0.70
     CG style diagonalization
     c_bands:  2 eigenvalues not converged
     c_bands:  1 eigenvalues not converged
     ethr =  1.54E-03,  avg # of iterations =  4.2

     total cpu time spent up to now is      279.2 secs

     total energy              =   -1223.38420570 Ry
     Harris-Foulkes estimate   =   -1223.41865621 Ry
     estimated scf accuracy    <       0.06474027 Ry

     iteration #  5     ecut=    40.00 Ry     beta=0.70
     CG style diagonalization
     c_bands:  2 eigenvalues not converged
     c_bands:  2 eigenvalues not converged
     c_bands:  1 eigenvalues not converged
     c_bands:  5 eigenvalues not converged
     c_bands:  2 eigenvalues not converged
     c_bands:  2 eigenvalues not converged
     c_bands:  2 eigenvalues not converged
     ethr =  4.05E-05,  avg # of iterations =  6.0

     total cpu time spent up to now is      295.2 secs

     total energy              =   -1223.46112889 Ry
     Harris-Foulkes estimate   =   -1223.47986533 Ry
     estimated scf accuracy    <       0.05116819 Ry

     iteration #  6     ecut=    40.00 Ry     beta=0.70
     CG style diagonalization
     ethr =  3.20E-05,  avg # of iterations =  3.6

     total cpu time spent up to now is      304.5 secs

     total energy              =   -1223.46848690 Ry
     Harris-Foulkes estimate   =   -1223.47153340 Ry
     estimated scf accuracy    <       0.00735364 Ry

     iteration #  7     ecut=    40.00 Ry     beta=0.70
     CG style diagonalization
     ethr =  4.60E-06,  avg # of iterations =  4.1

     total cpu time spent up to now is      315.0 secs

     total energy              =   -1223.47035273 Ry
     Harris-Foulkes estimate   =   -1223.47074457 Ry
     estimated scf accuracy    <       0.00093610 Ry

     iteration #  8     ecut=    40.00 Ry     beta=0.70
     CG style diagonalization
     c_bands:  1 eigenvalues not converged
     ethr =  5.85E-07,  avg # of iterations =  4.0

     total cpu time spent up to now is      325.4 secs

     total energy              =   -1223.47050358 Ry
     Harris-Foulkes estimate   =   -1223.47066702 Ry
     estimated scf accuracy    <       0.00072414 Ry

     iteration #  9     ecut=    40.00 Ry     beta=0.70
     CG style diagonalization
     ethr =  4.53E-07,  avg # of iterations =  3.0

     total cpu time spent up to now is      332.7 secs

     End of self-consistent calculation

          k = 0.0000 0.0000 0.0000 (  5769 PWs)   bands (ev):

   -34.7863 -34.7812 -34.7670 -34.7551 -16.7846 -16.4699 -15.6366 -15.2267
   -15.1500 -15.1499 -15.1424 -15.1423  -9.9570  -9.9437  -9.9437  -9.9325
    -9.9150  -9.9149  -9.8093  -9.8065  -9.7811  -9.7811  -9.7672  -9.7672
    -1.9751  -1.2080  -0.2308   0.7730   0.7730   1.0030   1.0030   1.1793
     1.1794   1.8367   2.6484   2.6484   2.6885   2.6885   2.9706   4.1221
     4.2767   4.2767   4.3410   4.3447   4.7354   4.7354   4.8864   4.8865
    16.1676  17.1830  17.3691  18.1855  18.1855  18.4335  18.7361  18.8265
    18.8345  18.8345  18.8810  18.8969  18.8969  19.0592  19.0593  19.1104
    19.2787  19.2787  19.6895  19.6895  19.8160  19.8161  20.5083  20.5083
    20.5376  21.0554  21.0554  21.2688  21.2688  21.3189  21.3189  21.4116
    22.1741  22.1741  22.5793  23.0798  23.0798  23.2999  23.2999  23.5285
    24.7024  24.7025  24.8520  25.7327  25.7452  25.8636  25.8638  25.9577

          k = 0.0000 0.0000 0.1456 (  5780 PWs)   bands (ev):

   -34.7856 -34.7841 -34.7631 -34.7583 -16.7491 -16.5322 -15.5606 -15.2766
   -15.1490 -15.1489 -15.1436 -15.1436  -9.9583  -9.9375  -9.9375  -9.9361
    -9.9231  -9.9230  -9.8108  -9.8028  -9.7796  -9.7796  -9.7698  -9.7698
    -1.9101  -1.4199   0.1093   0.7894   0.7894   0.9222   0.9222   1.3454
     1.3455   1.4547   2.1334   2.1334   3.2238   3.2238   3.2667   4.0139
     4.1175   4.1176   4.3395   4.3425   4.7791   4.7792   4.8739   4.8739
    16.2536  16.6929  18.1662  18.2136  18.2346  18.2648  18.2648  18.6142
    18.6142  18.6676  18.8430  18.8430  19.0896  19.0896  19.4015  19.4015
    19.4262  19.5736  19.6888  19.6889  19.9808  19.9809  20.4029  20.4029
    20.4791  20.9314  20.9314  21.2453  21.2454  21.2510  21.5133  21.5133
    22.3676  22.4009  22.4009  22.7104  22.8017  22.8017  23.0211  23.0211
    25.0890  25.0892  25.3355  25.7384  25.8442  25.8443  25.8643  26.6243

          k = 0.0000 0.0000-0.2913 (  5780 PWs)   bands (ev):

   -34.7855 -34.7855 -34.7597 -34.7597 -16.6528 -16.6528 -15.4071 -15.4071
   -15.1462 -15.1462 -15.1461 -15.1461  -9.9531  -9.9531  -9.9299  -9.9299
    -9.9299  -9.9299  -9.8064  -9.8064  -9.7717  -9.7717  -9.7717  -9.7717
    -1.7165  -1.7165   0.7627   0.7627   0.8405   0.8405   0.8405   0.8405
     1.6825   1.6825   1.6826   1.6826   3.7044   3.7044   3.7335   3.7335
     3.7335   3.7335   4.3435   4.3435   4.8373   4.8373   4.8373   4.8373
    16.4331  16.4331  17.8926  17.8926  18.4247  18.4247  18.4247  18.4247
    18.8744  18.8744  18.8745  18.8745  19.2255  19.2255  19.2588  19.2588
    19.6924  19.6924  19.6924  19.6924  20.1382  20.1383  20.1383  20.1383
    20.7803  20.7803  21.0435  21.0435  21.0435  21.0435  22.0449  22.0450
    22.0450  22.0450  22.2337  22.2337  22.8086  22.8086  22.8086  22.8086
    25.3969  25.3971  25.5443  25.5444  25.5445  25.5445  26.2011  26.2013

          k = 0.0000 0.3605 0.0000 (  5787 PWs)   bands (ev):

   -34.7846 -34.7742 -34.7709 -34.7622 -16.5689 -16.2479 -15.7337 -15.6400
   -15.4391 -15.1587 -15.1474 -14.9242  -9.9664  -9.9526  -9.9445  -9.9337
    -9.9158  -9.8872  -9.8392  -9.7914  -9.7899  -9.7720  -9.7576  -9.7490
    -1.1603  -0.4895  -0.1262   0.8581   0.9665   1.1287   1.2015   1.3795
     1.6621   2.1260   2.2493   2.4129   2.5217   2.6781   2.6795   3.3527
     3.4362   3.6416   3.9652   4.1648   4.2854   4.5230   4.6293   4.7599
    17.2918  17.4601  17.6707  18.1095  18.2144  18.4752  18.5746  18.6005
    18.7428  18.9388  18.9683  19.0466  19.2300  19.3234  19.4242  19.5339
    19.6361  19.7418  19.8220  20.0494  20.2071  20.3108  20.7336  20.9288
    20.9371  21.0956  21.4967  21.5400  21.6204  21.7750  21.9915  22.2008
    22.4096  22.5887  22.7340  22.9960  23.0409  23.1240  23.3929  23.5855
    23.7439  23.8724  24.0833  25.0242  25.1019  25.3744  25.4038  25.5592

          k = 0.0000 0.3605 0.1456 (  5804 PWs)   bands (ev):

   -34.7843 -34.7773 -34.7701 -34.7634 -16.5316 -16.3084 -15.7302 -15.6826
   -15.3216 -15.1571 -15.1491 -14.9799  -9.9723  -9.9642  -9.9453  -9.9361
    -9.9106  -9.8933  -9.8284  -9.8018  -9.7824  -9.7679  -9.7616  -9.7519
    -1.1146  -0.7266   0.1981   0.7793   1.0182   1.2429   1.2572   1.3690
     1.6975   1.7398   1.9169   2.1615   2.7250   2.8857   3.0496   3.4014
     3.4198   3.6828   3.8683   4.1404   4.2171   4.4712   4.6736   4.7525
    17.3329  17.4915  17.6961  17.9975  18.2070  18.5278  18.5914  18.7101
    18.7592  18.7715  18.9327  19.0826  19.3311  19.4292  19.4550  19.5214
    19.5707  19.7935  19.8694  20.0363  20.2931  20.4829  20.4889  20.8268
    20.9375  21.0567  21.3677  21.4428  21.5738  21.8791  22.0215  22.2646
    22.2660  22.3762  22.7319  22.7524  23.0609  23.1024  23.3259  23.3272
    24.1055  24.1455  24.5074  24.5507  25.4241  25.4396  25.6499  25.7583

          k = 0.0000 0.3605-0.2913 (  5816 PWs)   bands (ev):

   -34.7823 -34.7823 -34.7665 -34.7665 -16.4308 -16.4308 -15.7170 -15.7170
   -15.1532 -15.1532 -15.1297 -15.1297  -9.9740  -9.9740  -9.9404  -9.9404
    -9.9042  -9.9042  -9.8134  -9.8134  -9.7708  -9.7708  -9.7614  -9.7614
    -0.9720  -0.9720   0.5881   0.5881   1.2477   1.2477   1.3236   1.3236
     1.5443   1.5443   1.8478   1.8478   2.9364   2.9364   3.3323   3.3323
     3.6234   3.6234   3.8630   3.8630   4.3453   4.3453   4.7259   4.7259
    17.4718  17.4718  17.7411  17.7411  18.4212  18.4212  18.6909  18.6909
    18.7517  18.7517  19.0826  19.0827  19.2445  19.2445  19.5454  19.5454
    19.6924  19.6924  20.2333  20.2333  20.2703  20.2703  20.4961  20.4961
    21.0687  21.0688  21.3495  21.3495  21.7212  21.7212  21.8542  21.8542
    22.4794  22.4794  22.5472  22.5472  23.1497  23.1497  23.2324  23.2325
    24.2486  24.2486  24.9516  24.9518  25.2327  25.2328  25.7744  25.7746

          k =-0.4683-0.2704 0.0000 (  5800 PWs)   bands (ev):

   -34.7803 -34.7751 -34.7742 -34.7644 -16.4472 -16.1254 -15.9060 -15.6411
   -15.5849 -15.1616 -15.1492 -14.8959  -9.9639  -9.9634  -9.9467  -9.9388
    -9.9056  -9.8610  -9.8585  -9.8054  -9.7858  -9.7613  -9.7599  -9.7501
    -0.7963  -0.1580  -0.0857   0.8056   0.9263   1.2090   1.5479   1.8067
     1.8169   2.0196   2.1449   2.2974   2.3933   2.5419   2.6738   2.8095
     2.8333   3.3648   3.8385   4.0513   4.2869   4.6216   4.6255   4.7456
    17.0245  18.0161  18.2232  18.2431  18.4541  18.5819  18.6158  18.6743
    18.7462  18.7502  18.8207  18.8415  19.0257  19.1268  19.3086  19.3908
    19.6416  20.0088  20.0318  20.0689  20.1078  20.6245  20.6472  20.9009
    21.2447  21.4875  21.6093  21.6725  21.8327  21.9651  22.0454  22.1794
    22.2759  22.6740  23.0560  23.4137  23.5820  23.7501  23.8149  23.9023
    24.1833  24.3011  24.4772  24.6290  24.6450  25.0574  25.0672  25.2764

          k =-0.4683-0.2704 0.1456 (  5822 PWs)   bands (ev):

   -34.7818 -34.7769 -34.7719 -34.7677 -16.4067 -16.1757 -15.9003 -15.7969
   -15.3640 -15.1600 -15.1511 -14.9575  -9.9755  -9.9715  -9.9485  -9.9428
    -9.8971  -9.8773  -9.8392  -9.8096  -9.7834  -9.7664  -9.7638  -9.7484
    -0.7590  -0.4323   0.2542   0.7559   1.0136   1.2771   1.5698   1.6935
     1.7365   1.7562   2.1508   2.2330   2.4054   2.5036   2.7441   2.8263
     3.0644   3.5049   3.7337   4.1398   4.1625   4.5588   4.6646   4.7380
    17.1384  17.9108  18.1638  18.2127  18.3438  18.4991  18.5874  18.6573
    18.7408  18.8801  19.0259  19.0768  19.1045  19.1898  19.2540  19.6367
    19.8109  19.8622  20.0106  20.0381  20.0926  20.3765  20.6268  20.7370
    20.9961  21.2280  21.2840  21.7911  21.8003  21.9276  22.1082  22.1653
    22.5908  22.6934  23.1941  23.2050  23.3735  23.8453  23.9664  24.3030
    24.3434  24.3491  24.4139  24.6351  24.8550  24.8597  25.0623  25.5136

          k =-0.4683-0.2704-0.2913 (  5804 PWs)   bands (ev):

   -34.7796 -34.7796 -34.7679 -34.7679 -16.2981 -16.2981 -15.8752 -15.8752
   -15.1555 -15.1555 -15.1272 -15.1272  -9.9785  -9.9785  -9.9449  -9.9449
    -9.8819  -9.8819  -9.8158  -9.8158  -9.7728  -9.7728  -9.7585  -9.7585
    -0.6417  -0.6417   0.5801   0.5801   1.3024   1.3024   1.4628   1.4628
     1.6451   1.6451   2.1776   2.1776   2.4464   2.4464   2.8056   2.8056
     3.4498   3.4498   3.8271   3.8271   4.3836   4.3836   4.7138   4.7138
    17.4639  17.4639  18.1766  18.1766  18.5094  18.5094  18.6220  18.6220
    18.6962  18.6962  19.2192  19.2192  19.3645  19.3645  19.5159  19.5159
    19.7212  19.7212  20.0757  20.0757  20.1038  20.1038  20.6397  20.6397
    20.8243  20.8243  21.5003  21.5003  21.7807  21.7807  22.1333  22.1333
    22.8545  22.8545  23.0533  23.0533  23.5747  23.5747  24.3511  24.3511
    24.3982  24.3982  24.6944  24.6945  24.7693  24.7695  25.2969  25.2970

          k =-0.4683 0.0901 0.0000 (  5827 PWs)   bands (ev):

   -34.7824 -34.7753 -34.7742 -34.7671 -16.4466 -16.1268 -15.9067 -15.6413
   -15.5831 -15.1599 -15.1524 -14.8954  -9.9709  -9.9627  -9.9442  -9.9390
    -9.9099  -9.8670  -9.8609  -9.8091  -9.7851  -9.7646  -9.7639  -9.7499
    -0.7199  -0.1126  -0.0852   0.6903   0.9570   1.1214   1.1477   1.8001
     1.8969   1.9665   2.1524   2.4616   2.4912   2.6022   2.6102   2.7210
     3.3334   3.5080   3.9552   4.0881   4.2241   4.4053   4.4358   4.6113
    17.2442  17.9584  18.0367  18.0940  18.1534  18.4984  18.5818  18.6060
    18.6853  18.8014  18.9593  19.0846  19.1311  19.2217  19.2829  19.4825
    19.8731  20.1597  20.3267  20.3768  20.5065  20.6622  20.7386  21.0146
    21.0673  21.3469  21.4262  21.5471  21.7125  21.8667  21.9863  22.0394
    22.5982  22.6160  22.8027  22.9062  22.9994  23.3220  23.5999  23.7345
    23.9234  24.2092  24.4749  24.6869  24.8287  24.8777  25.0188  25.2175

          k =-0.4683 0.0901 0.1456 (  5825 PWs)   bands (ev):

   -34.7824 -34.7771 -34.7713 -34.7679 -16.4061 -16.1766 -15.9008 -15.7967
   -15.3631 -15.1587 -15.1534 -14.9569  -9.9762  -9.9719  -9.9426  -9.9402
    -9.9010  -9.8790  -9.8392  -9.8122  -9.7847  -9.7671  -9.7608  -9.7503
    -0.6850  -0.3822   0.2307   0.6279   1.0570   1.1834   1.2326   1.6899
     1.8296   1.8653   1.9665   2.0845   2.5934   2.6069   2.8986   2.9838
     3.3679   3.5514   3.8608   4.0509   4.2065   4.4298   4.4458   4.5629
    17.3447  17.8921  18.0498  18.0596  18.2414  18.4038  18.5595  18.6598
    18.6801  18.7882  18.9270  19.0450  19.1624  19.2307  19.6075  19.8452
    19.8643  20.0212  20.2418  20.2584  20.4063  20.5191  20.7382  20.7723
    20.9993  21.2264  21.3906  21.6261  21.7862  21.8591  22.0875  22.3212
    22.4117  22.4979  22.6574  22.9019  23.0644  23.3146  23.4951  23.6973
    23.9799  24.2690  24.5062  24.6580  24.8196  25.0193  25.1971  25.3417

          k =-0.4683 0.0901-0.2913 (  5824 PWs)   bands (ev):

   -34.7804 -34.7804 -34.7689 -34.7689 -16.2981 -16.2981 -15.8758 -15.8758
   -15.1561 -15.1561 -15.1263 -15.1263  -9.9805  -9.9805  -9.9422  -9.9422
    -9.8877  -9.8877  -9.8192  -9.8192  -9.7765  -9.7765  -9.7561  -9.7561
    -0.5761  -0.5761   0.4874   0.4874   1.2764   1.2764   1.4091   1.4091
     1.6367   1.6367   1.9711   1.9711   2.6062   2.6062   3.1284   3.1284
     3.5185   3.5185   3.8314   3.8314   4.3513   4.3513   4.4864   4.4864
    17.6237  17.6237  18.0007  18.0008  18.3803  18.3803  18.6216  18.6216
    18.7135  18.7135  19.0260  19.0260  19.4506  19.4506  19.6346  19.6346
    19.8482  19.8482  20.1995  20.1995  20.4841  20.4841  20.7035  20.7035
    21.0840  21.0840  21.3764  21.3764  21.8922  21.8922  22.0983  22.0983
    22.5150  22.5150  22.6692  22.6692  23.2750  23.2750  23.7319  23.7319
    23.9238  23.9238  24.5869  24.5871  25.0762  25.0769  25.4973  25.4975

     the Fermi energy is    22.2761 ev

!    total energy              =   -1223.47047122 Ry
     Harris-Foulkes estimate   =   -1223.47056296 Ry
     estimated scf accuracy    <       0.00009817 Ry

     The total energy is the sum of the following terms:

     one-electron contribution =      19.47450171 Ry
     hartree contribution      =     110.36323413 Ry
     xc contribution           =    -148.86316196 Ry
     ewald contribution        =   -1203.71137204 Ry
     smearing contrib. (-TS)   =      -0.73367306 Ry

     convergence has been achieved in   9 iterations

     Forces acting on atoms (Ry/au):

     atom    1 type  1   force =     0.00000000    0.00000000   -0.00453328
     atom    2 type  1   force =     0.00000000    0.00000000   -0.00453328
     atom    3 type  1   force =     0.00000000    0.00000000    0.00453328
     atom    4 type  1   force =     0.00000000    0.00000000    0.00453328
     atom    5 type  2   force =     0.00000000    0.00000000    0.00000000
     atom    6 type  2   force =     0.00000000    0.00000000    0.00000000
     atom    7 type  2   force =     0.00000000    0.02743440    0.00000000
     atom    8 type  2   force =    -0.02375889    0.01371720    0.00000000
     atom    9 type  2   force =     0.02375889    0.01371720    0.00000000
     atom   10 type  2   force =    -0.02375889   -0.01371720    0.00000000
     atom   11 type  2   force =     0.02375889   -0.01371720    0.00000000
     atom   12 type  2   force =     0.00000000   -0.02743440    0.00000000

     Total force =     0.067809     Total SCF correction =     0.000000


     entering subroutine stress ...

          total   stress  (Ry/bohr**3)                   (kbar)     P=  220.80
   0.00156926   0.00000000   0.00000000        230.85      0.00      0.00
   0.00000000   0.00156926   0.00000000          0.00    230.85      0.00
   0.00000000   0.00000000   0.00136429          0.00      0.00    200.69


     number of scf cycles    =   2
     number of bfgs steps    =   1

     enthalpy old            =   -1222.3051046868 Ry
     enthalpy new            =   -1223.4704712193 Ry

     CASE: enthalpy_new < enthalpy_old

     small trust_radius: resetting bfgs history

     new trust radius        =       0.3193375662 bohr
     new conv_thr            =       0.0000274344 Ry

     new unit-cell volume =   1849.94943 a.u.^3 (   274.13422 Ang^3 )

CELL_PARAMETERS (alat=  9.92348860)
   1.109654995   0.000000000   0.000000000
  -0.554827498   0.960989415   0.000000000
   0.000000000   0.000000000   1.775252587

ATOMIC_POSITIONS (crystal)
Mg       0.333333000   0.666667000   0.061931377
Mg       0.666667000   0.333333000   0.561931377
Mg       0.666667000   0.333333000   0.938068623
Mg       0.333333000   0.666667000   0.438068623
Zn       0.000000000   0.000000000   0.000000000
Zn       0.000000000   0.000000000   0.500000000
Zn       0.174107950   0.348215899   0.750000000
Zn       0.825892050   0.174107950   0.250000000
Zn       0.348215899   0.174107950   0.250000000
Zn       0.651784101   0.825892050   0.750000000
Zn       0.174107950   0.825892050   0.750000000
Zn       0.825892050   0.651784101   0.250000000



     Writing output data file Prototype-La-hP12-MgZn2.save
     NEW-OLD atomic charge density approx. for the potential
     NEW k-points:
        k(    1) = (   0.0000000   0.0000000   0.0000000), wk =   0.0833333
        k(    2) = (   0.0000000   0.0000000   0.1408250), wk =   0.1666667
        k(    3) = (   0.0000000   0.0000000  -0.2816501), wk =   0.0833333
        k(    4) = (   0.0000000   0.3468647   0.0000000), wk =   0.1666667
        k(    5) = (   0.0000000   0.3468647   0.1408250), wk =   0.3333333
        k(    6) = (   0.0000000   0.3468647  -0.2816501), wk =   0.1666667
        k(    7) = (  -0.4505905  -0.2601485   0.0000000), wk =   0.0833333
        k(    8) = (  -0.4505905  -0.2601485   0.1408250), wk =   0.1666667
        k(    9) = (  -0.4505905  -0.2601485  -0.2816501), wk =   0.0833333
        k(   10) = (  -0.4505905   0.0867162   0.0000000), wk =   0.1666667
        k(   11) = (  -0.4505905   0.0867162   0.1408250), wk =   0.3333333
        k(   12) = (  -0.4505905   0.0867162  -0.2816501), wk =   0.1666667

     total cpu time spent up to now is      337.3 secs

     Self-consistent Calculation

     iteration #  1     ecut=    40.00 Ry     beta=0.70
     CG style diagonalization
     c_bands:  2 eigenvalues not converged
     ethr =  1.00E-06,  avg # of iterations = 18.2

     total cpu time spent up to now is      380.0 secs

     total energy              =   -1219.33878853 Ry
     Harris-Foulkes estimate   =   -1225.39934594 Ry
     estimated scf accuracy    <       7.48461033 Ry

     iteration #  2     ecut=    40.00 Ry     beta=0.70
     CG style diagonalization
     c_bands:  1 eigenvalues not converged
     ethr =  4.68E-03,  avg # of iterations =  5.1

     total cpu time spent up to now is      393.3 secs

     total energy              =   -1214.91507268 Ry
     Harris-Foulkes estimate   =   -1233.94823992 Ry
     estimated scf accuracy    <      70.69309622 Ry

     iteration #  3     ecut=    40.00 Ry     beta=0.70
     CG style diagonalization
     ethr =  4.68E-03,  avg # of iterations =  5.3

     total cpu time spent up to now is      405.4 secs

     total energy              =   -1223.15837482 Ry
     Harris-Foulkes estimate   =   -1223.56181097 Ry
     estimated scf accuracy    <       0.82350225 Ry

     iteration #  4     ecut=    40.00 Ry     beta=0.70
     CG style diagonalization
     c_bands:  1 eigenvalues not converged
     c_bands:  2 eigenvalues not converged
     ethr =  5.15E-04,  avg # of iterations =  4.5

     total cpu time spent up to now is      415.7 secs

     total energy              =   -1223.51888498 Ry
     Harris-Foulkes estimate   =   -1223.54350463 Ry
     estimated scf accuracy    <       0.04746656 Ry

     iteration #  5     ecut=    40.00 Ry     beta=0.70
     CG style diagonalization
     c_bands:  1 eigenvalues not converged
     ethr =  2.97E-05,  avg # of iterations =  4.9

     total cpu time spent up to now is      426.9 secs

     total energy              =   -1223.54341197 Ry
     Harris-Foulkes estimate   =   -1223.55191255 Ry
     estimated scf accuracy    <       0.01899214 Ry

     iteration #  6     ecut=    40.00 Ry     beta=0.70
     CG style diagonalization
     ethr =  1.19E-05,  avg # of iterations =  3.9

     total cpu time spent up to now is      435.7 secs

     total energy              =   -1223.54771525 Ry
     Harris-Foulkes estimate   =   -1223.54941683 Ry
     estimated scf accuracy    <       0.00402119 Ry

     iteration #  7     ecut=    40.00 Ry     beta=0.70
     CG style diagonalization
     ethr =  2.51E-06,  avg # of iterations =  3.9

     total cpu time spent up to now is      444.6 secs

     total energy              =   -1223.54861744 Ry
     Harris-Foulkes estimate   =   -1223.54890696 Ry
     estimated scf accuracy    <       0.00072105 Ry

     iteration #  8     ecut=    40.00 Ry     beta=0.70
     CG style diagonalization
     ethr =  4.51E-07,  avg # of iterations =  3.8

     total cpu time spent up to now is      453.0 secs

     total energy              =   -1223.54879342 Ry
     Harris-Foulkes estimate   =   -1223.54882428 Ry
     estimated scf accuracy    <       0.00007394 Ry

     iteration #  9     ecut=    40.00 Ry     beta=0.70
     CG style diagonalization
     ethr =  4.62E-08,  avg # of iterations =  4.0

     total cpu time spent up to now is      462.1 secs

     End of self-consistent calculation

          k = 0.0000 0.0000 0.0000 (  5769 PWs)   bands (ev):

   -37.3497 -37.3457 -37.3447 -37.3345 -19.0828 -18.8604 -18.2339 -17.9640
   -17.9071 -17.9071 -17.9034 -17.9034 -12.4251 -12.4182 -12.4060 -12.4060
   -12.3829 -12.3829 -12.3249 -12.3141 -12.2887 -12.2887 -12.2838 -12.2838
    -3.6781  -3.0728  -2.1688  -1.4296  -1.4296  -1.2495  -1.2494  -1.0668
    -1.0667  -0.5825   0.0749   0.0749   0.1241   0.1241   0.2959   1.2239
     1.3278   1.3278   1.3750   1.3757   1.6916   1.6916   1.8167   1.8167
    14.2214  15.1873  15.3734  15.6985  16.0032  16.0032  16.5045  16.5238
    16.6000  16.7029  16.7030  16.7126  16.7126  16.7436  16.7589  16.7590
    17.0939  17.0939  17.3847  17.3847  17.4581  17.4581  17.7513  18.0031
    18.0032  18.5806  18.5806  18.7091  18.7091  18.7334  18.7334  18.8171
    19.5678  19.5678  19.8028  20.3135  20.3135  20.4370  20.6478  20.6478
    21.7185  21.7185  21.8015  22.7766  22.7766  22.7789  23.0024  23.0400

          k = 0.0000 0.0000 0.1408 (  5780 PWs)   bands (ev):

   -37.3534 -37.3460 -37.3396 -37.3389 -19.0572 -18.9033 -18.1841 -17.9967
   -17.9066 -17.9066 -17.9040 -17.9039 -12.4273 -12.4158 -12.3995 -12.3995
   -12.3913 -12.3913 -12.3296 -12.3141 -12.2891 -12.2891 -12.2857 -12.2857
    -3.6230  -3.2279  -1.9201  -1.4170  -1.4170  -1.3103  -1.3102  -0.9384
    -0.9384  -0.8783  -0.3164  -0.3163   0.5237   0.5237   0.5321   1.1373
     1.2067   1.2067   1.3722   1.3725   1.7269   1.7269   1.8056   1.8056
    14.3116  14.7594  15.8356  15.9902  16.0813  16.0813  16.0814  16.1135
    16.4529  16.4529  16.6999  16.7000  16.7940  16.8192  16.8193  17.1999
    17.1999  17.2195  17.3369  17.3369  17.6492  17.6492  17.8576  17.9151
    17.9152  18.4249  18.4249  18.6434  18.6435  18.6759  18.9786  18.9786
    19.6251  19.7382  19.7382  19.8752  20.1764  20.1764  20.2535  20.2535
    22.1289  22.1289  22.4883  22.7932  22.8151  22.8152  23.1366  23.7274

          k = 0.0000 0.0000-0.2817 (  5780 PWs)   bands (ev):

   -37.3508 -37.3508 -37.3375 -37.3375 -18.9881 -18.9881 -18.0826 -18.0826
   -17.9053 -17.9053 -17.9052 -17.9052 -12.4256 -12.4256 -12.3943 -12.3943
   -12.3943 -12.3943 -12.3255 -12.3255 -12.2841 -12.2841 -12.2840 -12.2840
    -3.4621  -3.4621  -1.4225  -1.4225  -1.3752  -1.3752  -1.3752  -1.3752
    -0.6688  -0.6688  -0.6688  -0.6688   0.8854   0.8854   0.9129   0.9129
     0.9129   0.9129   1.3761   1.3761   1.7748   1.7748   1.7748   1.7748
    14.5031  14.5031  15.7336  15.7336  16.2594  16.2594  16.2594  16.2594
    16.3997  16.3997  16.6803  16.6803  16.6804  16.6804  16.9884  16.9885
    17.4263  17.4263  17.4263  17.4263  17.7133  17.7133  17.7134  17.7134
    18.2748  18.2748  18.4761  18.4761  18.4761  18.4761  19.4681  19.4681
    19.4681  19.4681  19.5231  19.5231  20.0750  20.0750  20.0750  20.0750
    22.5472  22.5473  22.6024  22.6025  22.6025  22.6025  23.4055  23.4055

          k = 0.0000 0.3469 0.0000 (  5787 PWs)   bands (ev):

   -37.3509 -37.3445 -37.3443 -37.3407 -18.9145 -18.7099 -18.3348 -18.2352
   -18.0907 -17.9110 -17.9058 -17.7378 -12.4323 -12.4244 -12.4060 -12.3956
   -12.3896 -12.3743 -12.3390 -12.3071 -12.3031 -12.2875 -12.2845 -12.2705
    -3.0249  -2.5132  -2.0754  -1.3724  -1.2455  -1.1706  -1.0550  -0.9497
    -0.7440  -0.3439  -0.3092  -0.1069  -0.0511   0.0944   0.1193   0.6618
     0.7283   0.8890   1.0926   1.3348   1.3384   1.5245   1.6080   1.7199
    15.3212  15.3247  15.6035  15.9631  16.1530  16.3261  16.3695  16.4784
    16.5002  16.6881  16.7018  16.7496  16.8592  17.0353  17.0703  17.2608
    17.2873  17.3565  17.4649  17.6313  17.7946  17.8005  18.2895  18.3226
    18.4246  18.4307  18.9336  18.9468  19.0047  19.1695  19.3134  19.4296
    19.5925  19.8368  20.0398  20.1804  20.3096  20.3282  20.6297  20.7349
    20.9296  21.0400  21.2523  22.0317  22.1664  22.3250  22.4667  22.4762

          k = 0.0000 0.3469 0.1408 (  5804 PWs)   bands (ev):

   -37.3511 -37.3472 -37.3459 -37.3423 -18.8892 -18.7456 -18.3305 -18.2771
   -18.0060 -17.9102 -17.9065 -17.7746 -12.4362 -12.4328 -12.4075 -12.3980
   -12.3885 -12.3774 -12.3352 -12.3173 -12.3000 -12.2869 -12.2843 -12.2725
    -2.9857  -2.6699  -1.8644  -1.4338  -1.2192  -1.0516  -1.0289  -0.9548
    -0.7106  -0.6642  -0.5185  -0.3188   0.1175   0.2638   0.3930   0.6843
     0.7131   0.9151   1.0187   1.2238   1.3626   1.4942   1.6442   1.7130
    15.3263  15.3667  15.6254  15.9208  16.0573  16.3183  16.4278  16.4846
    16.5640  16.5863  16.7891  16.8021  16.9720  17.0383  17.1095  17.1678
    17.2156  17.4357  17.4765  17.6399  17.8101  17.9670  18.0864  18.2690
    18.3127  18.5165  18.8075  18.8101  18.9933  19.1795  19.3671  19.5485
    19.5854  19.6120  20.0423  20.0734  20.3039  20.3581  20.4914  20.5252
    21.2202  21.3039  21.5276  21.6645  22.4631  22.5312  22.5678  22.7552

          k = 0.0000 0.3469-0.2817 (  5816 PWs)   bands (ev):

   -37.3509 -37.3509 -37.3449 -37.3449 -18.8225 -18.8225 -18.3145 -18.3145
   -17.9084 -17.9084 -17.8746 -17.8746 -12.4370 -12.4369 -12.4021 -12.4021
   -12.3870 -12.3870 -12.3273 -12.3273 -12.2928 -12.2928 -12.2806 -12.2806
    -2.8652  -2.8652  -1.5849  -1.5849  -1.0378  -1.0378  -0.9799  -0.9799
    -0.8146  -0.8146  -0.5763  -0.5763   0.3018   0.3019   0.6305   0.6306
     0.8347   0.8347   1.0281   1.0281   1.4263   1.4263   1.6890   1.6890
    15.3884  15.3884  15.6721  15.6721  16.2537  16.2537  16.5130  16.5130
    16.5567  16.5567  16.8451  16.8451  16.9334  16.9334  17.1137  17.1137
    17.3684  17.3684  17.8120  17.8120  17.8325  17.8325  17.8749  17.8749
    18.5466  18.5466  18.7810  18.7810  19.0976  19.0976  19.2052  19.2052
    19.7810  19.7810  19.8801  19.8801  20.3768  20.3768  20.4122  20.4122
    21.3781  21.3781  21.9706  21.9708  22.2686  22.2687  22.8270  22.8270

          k =-0.4506-0.2601 0.0000 (  5800 PWs)   bands (ev):

   -37.3487 -37.3484 -37.3465 -37.3412 -18.8149 -18.6341 -18.4674 -18.2356
   -18.1784 -17.9122 -17.9066 -17.7160 -12.4352 -12.4295 -12.4088 -12.3986
   -12.3847 -12.3558 -12.3525 -12.3166 -12.3052 -12.2877 -12.2765 -12.2752
    -2.7260  -2.2443  -2.0378  -1.4613  -1.2790  -1.0509  -0.8947  -0.6343
    -0.6124  -0.4317  -0.4177  -0.2476  -0.0169  -0.0078   0.1139   0.1880
     0.3281   0.6974   0.9959   1.2641   1.3350   1.6003   1.6006   1.7089
    15.0954  15.8601  16.0546  16.0851  16.2635  16.3042  16.4609  16.5558
    16.5681  16.5815  16.6056  16.6951  16.8738  16.8997  16.9974  17.0323
    17.3392  17.5063  17.5942  17.5997  17.6179  18.0464  18.2663  18.4285
    18.5909  18.9490  18.9974  19.1418  19.2673  19.3089  19.3844  19.5251
    19.6517  19.7225  20.0873  20.3986  20.7534  20.9644  20.9747  20.9763
    21.3182  21.3420  21.4578  21.6331  21.6400  21.9507  22.0357  22.4503

          k =-0.4506-0.2601 0.1408 (  5822 PWs)   bands (ev):

   -37.3507 -37.3501 -37.3466 -37.3459 -18.7888 -18.6578 -18.4603 -18.3530
   -18.0301 -17.9114 -17.9074 -17.7566 -12.4388 -12.4375 -12.4112 -12.4037
   -12.3808 -12.3694 -12.3428 -12.3226 -12.3036 -12.2941 -12.2822 -12.2711
    -2.6923  -2.4144  -1.8345  -1.4926  -1.2126  -0.9973  -0.8716  -0.6938
    -0.6844  -0.6519  -0.4150  -0.3273  -0.0167  -0.0071   0.2035   0.3178
     0.3895   0.7799   0.9144   1.2233   1.3234   1.5570   1.6356   1.7016
    15.1763  15.7886  15.9945  16.0063  16.2008  16.2935  16.4586  16.5257
    16.6656  16.7083  16.7438  16.7789  16.8296  16.9233  16.9603  17.3220
    17.4166  17.4650  17.5007  17.6140  17.6900  17.9966  18.1033  18.3001
    18.4329  18.6136  18.7001  19.1831  19.2368  19.3103  19.4070  19.4633
    19.8914  19.9536  20.3299  20.3646  20.4140  20.9884  21.0851  21.3543
    21.3732  21.4331  21.4418  21.6421  21.7324  21.8629  21.9463  22.5269

          k =-0.4506-0.2601-0.2817 (  5804 PWs)   bands (ev):

   -37.3491 -37.3491 -37.3443 -37.3443 -18.7228 -18.7228 -18.4309 -18.4309
   -17.9094 -17.9094 -17.8696 -17.8696 -12.4386 -12.4385 -12.4063 -12.4063
   -12.3695 -12.3695 -12.3257 -12.3257 -12.2964 -12.2964 -12.2800 -12.2800
    -2.5889  -2.5889  -1.6085  -1.6085  -0.9870  -0.9870  -0.8537  -0.8537
    -0.7961  -0.7961  -0.3897  -0.3897  -0.0080  -0.0080   0.2895   0.2895
     0.6945   0.6945   0.9961   0.9961   1.4520   1.4520   1.6788   1.6788
    15.4247  15.4247  15.9863  15.9863  16.3390  16.3390  16.4499  16.4499
    16.5854  16.5854  16.9458  16.9458  17.0918  17.0918  17.2076  17.2076
    17.2349  17.2350  17.6397  17.6397  17.7051  17.7051  18.2077  18.2077
    18.3048  18.3048  18.8845  18.8845  19.2060  19.2060  19.5003  19.5003
    20.0050  20.0050  20.2481  20.2481  20.7745  20.7745  21.3361  21.3361
    21.4539  21.4539  21.6864  21.6864  21.6891  21.6891  22.2320  22.2320

          k =-0.4506 0.0867 0.0000 (  5827 PWs)   bands (ev):

   -37.3511 -37.3488 -37.3486 -37.3464 -18.8146 -18.6346 -18.4678 -18.2356
   -18.1774 -17.9115 -17.9080 -17.7158 -12.4389 -12.4332 -12.4104 -12.4042
   -12.3873 -12.3596 -12.3542 -12.3176 -12.3047 -12.2911 -12.2846 -12.2769
    -2.6644  -2.2267  -2.0374  -1.5477  -1.2571  -1.1582  -1.1041  -0.6255
    -0.5960  -0.5238  -0.3179  -0.0881  -0.0719   0.0525   0.1015   0.1496
     0.6550   0.7894   1.0826   1.2705   1.2861   1.4702   1.4869   1.5886
    15.2866  15.8758  15.8961  15.9036  15.9928  16.3293  16.4396  16.4475
    16.5191  16.6844  16.7456  16.8369  16.8463  16.8775  16.9509  17.2325
    17.4659  17.7698  17.7745  17.8781  18.0529  18.2248  18.2480  18.4679
    18.5088  18.6325  18.8659  18.8784  19.0869  19.2976  19.3175  19.4065
    19.8385  19.8923  19.9005  20.0319  20.1827  20.6044  20.6967  20.8524
    21.0787  21.3470  21.5374  21.5917  21.9008  21.9398  21.9512  22.3171

          k =-0.4506 0.0867 0.1408 (  5825 PWs)   bands (ev):

   -37.3519 -37.3485 -37.3472 -37.3465 -18.7885 -18.6582 -18.4606 -18.3527
   -18.0296 -17.9110 -17.9085 -17.7564 -12.4389 -12.4377 -12.4084 -12.4056
   -12.3829 -12.3677 -12.3410 -12.3233 -12.3044 -12.2922 -12.2824 -12.2756
    -2.6328  -2.3781  -1.8687  -1.5914  -1.1804  -1.0950  -1.0444  -0.6976
    -0.6314  -0.5541  -0.5394  -0.3978   0.0599   0.1311   0.2675   0.3310
     0.6672   0.8126   1.0121   1.1665   1.3370   1.4777   1.4986   1.5654
    15.3552  15.7954  15.8589  15.9225  16.0731  16.2742  16.3973  16.4775
    16.5334  16.6188  16.7182  16.8352  16.8929  16.9438  17.2728  17.3851
    17.4848  17.6302  17.7283  17.8715  17.9548  18.0946  18.1825  18.2864
    18.4149  18.6201  18.7696  19.0207  19.1463  19.1881  19.3811  19.6374
    19.6805  19.7373  19.8955  20.1553  20.3158  20.5083  20.6200  20.8567
    21.1144  21.3802  21.5633  21.6793  21.8620  21.8971  22.2171  22.2901

          k =-0.4506 0.0867-0.2817 (  5824 PWs)   bands (ev):

   -37.3507 -37.3507 -37.3463 -37.3463 -18.7228 -18.7228 -18.4310 -18.4309
   -17.9098 -17.9098 -17.8692 -17.8692 -12.4408 -12.4408 -12.4078 -12.4078
   -12.3739 -12.3739 -12.3284 -12.3284 -12.2987 -12.2987 -12.2799 -12.2799
    -2.5374  -2.5374  -1.6928  -1.6928  -1.0054  -1.0054  -0.9122  -0.9122
    -0.7387  -0.7387  -0.5344  -0.5344   0.1110   0.1110   0.4589   0.4589
     0.7590   0.7590   0.9981   0.9981   1.4227   1.4227   1.5282   1.5282
    15.5602  15.5602  15.8473  15.8473  16.2396  16.2396  16.4501  16.4501
    16.5584  16.5584  16.8002  16.8002  17.1297  17.1297  17.2902  17.2902
    17.4222  17.4222  17.7747  17.7747  18.0382  18.0382  18.1806  18.1806
    18.4873  18.4873  18.7984  18.7984  19.2614  19.2614  19.3782  19.3782
    19.8018  19.8018  19.9472  19.9473  20.4533  20.4533  20.8879  20.8879
    21.0693  21.0693  21.6733  21.6733  21.9821  21.9824  22.3953  22.3959

     the Fermi energy is    19.5990 ev

!    total energy              =   -1223.54880154 Ry
     Harris-Foulkes estimate   =   -1223.54881261 Ry
     estimated scf accuracy    <       0.00001339 Ry

     The total energy is the sum of the following terms:

     one-electron contribution =     -39.90733984 Ry
     hartree contribution      =     124.38319312 Ry
     xc contribution           =    -147.08528561 Ry
     ewald contribution        =   -1160.11545363 Ry
     smearing contrib. (-TS)   =      -0.82391559 Ry

     convergence has been achieved in   9 iterations

     Forces acting on atoms (Ry/au):

     atom    1 type  1   force =     0.00000000    0.00000000   -0.00010033
     atom    2 type  1   force =     0.00000000    0.00000000   -0.00010033
     atom    3 type  1   force =     0.00000000    0.00000000    0.00010033
     atom    4 type  1   force =     0.00000000    0.00000000    0.00010033
     atom    5 type  2   force =     0.00000000    0.00000000    0.00000000
     atom    6 type  2   force =     0.00000000    0.00000000    0.00000000
     atom    7 type  2   force =     0.00000000   -0.00525570    0.00000000
     atom    8 type  2   force =     0.00455157   -0.00262785    0.00000000
     atom    9 type  2   force =    -0.00455157   -0.00262785    0.00000000
     atom   10 type  2   force =     0.00455157    0.00262785    0.00000000
     atom   11 type  2   force =    -0.00455157    0.00262785    0.00000000
     atom   12 type  2   force =     0.00000000    0.00525570    0.00000000

     Total force =     0.012875     Total SCF correction =     0.000000


     entering subroutine stress ...

          total   stress  (Ry/bohr**3)                   (kbar)     P=  -76.30
  -0.00047614   0.00000000   0.00000000        -70.04      0.00      0.00
   0.00000000  -0.00047614   0.00000000          0.00    -70.04      0.00
   0.00000000   0.00000000  -0.00060367          0.00      0.00    -88.80


     number of scf cycles    =   3
     number of bfgs steps    =   2

     enthalpy old            =   -1223.4704712193 Ry
     enthalpy new            =   -1223.5488015444 Ry

     CASE: enthalpy_new < enthalpy_old

     Message from routine bfgs:
     history already reset at previous step: stopping
     small trust_radius: resetting bfgs history

     new trust radius        =       0.1298215788 bohr
     new conv_thr            =       0.0000052557 Ry

     new unit-cell volume =   1778.91138 a.u.^3 (   263.60747 Ang^3 )

CELL_PARAMETERS (alat=  9.92348860)
   1.096446114   0.000000000   0.000000000
  -0.548223057   0.949550189   0.000000000
   0.000000000   0.000000000   1.748461082

ATOMIC_POSITIONS (crystal)
Mg       0.333333000   0.666667000   0.061925682
Mg       0.666667000   0.333333000   0.561925682
Mg       0.666667000   0.333333000   0.938074318
Mg       0.333333000   0.666667000   0.438074318
Zn       0.000000000   0.000000000   0.000000000
Zn       0.000000000   0.000000000   0.500000000
Zn       0.173832389   0.347664777   0.750000000
Zn       0.826167611   0.173832389   0.250000000
Zn       0.347664777   0.173832389   0.250000000
Zn       0.652335223   0.826167611   0.750000000
Zn       0.173832389   0.826167611   0.750000000
Zn       0.826167611   0.652335223   0.250000000



     Writing output data file Prototype-La-hP12-MgZn2.save
     NEW-OLD atomic charge density approx. for the potential
     NEW k-points:
        k(    1) = (   0.0000000   0.0000000   0.0000000), wk =   0.0833333
        k(    2) = (   0.0000000   0.0000000   0.1429829), wk =   0.1666667
        k(    3) = (   0.0000000   0.0000000  -0.2859658), wk =   0.0833333
        k(    4) = (   0.0000000   0.3510434   0.0000000), wk =   0.1666667
        k(    5) = (   0.0000000   0.3510434   0.1429829), wk =   0.3333333
        k(    6) = (   0.0000000   0.3510434  -0.2859658), wk =   0.1666667
        k(    7) = (  -0.4560188  -0.2632826   0.0000000), wk =   0.0833333
        k(    8) = (  -0.4560188  -0.2632826   0.1429829), wk =   0.1666667
        k(    9) = (  -0.4560188  -0.2632826  -0.2859658), wk =   0.0833333
        k(   10) = (  -0.4560188   0.0877609   0.0000000), wk =   0.1666667
        k(   11) = (  -0.4560188   0.0877609   0.1429829), wk =   0.3333333
        k(   12) = (  -0.4560188   0.0877609  -0.2859658), wk =   0.1666667

     total cpu time spent up to now is      466.3 secs

     Self-consistent Calculation

     iteration #  1     ecut=    40.00 Ry     beta=0.70
     CG style diagonalization
     c_bands:  1 eigenvalues not converged
     ethr =  1.00E-06,  avg # of iterations =  8.9

     total cpu time spent up to now is      486.9 secs

     total energy              =   -1223.16334790 Ry
     Harris-Foulkes estimate   =   -1223.77923147 Ry
     estimated scf accuracy    <       0.76627886 Ry

     iteration #  2     ecut=    40.00 Ry     beta=0.70
     CG style diagonalization
     ethr =  4.79E-04,  avg # of iterations =  4.2

     total cpu time spent up to now is      496.4 secs

     total energy              =   -1222.74469957 Ry
     Harris-Foulkes estimate   =   -1224.50594484 Ry
     estimated scf accuracy    <       6.02825902 Ry

     iteration #  3     ecut=    40.00 Ry     beta=0.70
     CG style diagonalization
     ethr =  4.79E-04,  avg # of iterations =  4.0

     total cpu time spent up to now is      505.5 secs

     total energy              =   -1223.53895684 Ry
     Harris-Foulkes estimate   =   -1223.56968901 Ry
     estimated scf accuracy    <       0.08761993 Ry

     iteration #  4     ecut=    40.00 Ry     beta=0.70
     CG style diagonalization
     ethr =  5.48E-05,  avg # of iterations =  3.7

     total cpu time spent up to now is      513.7 secs

     total energy              =   -1223.56245797 Ry
     Harris-Foulkes estimate   =   -1223.56523903 Ry
     estimated scf accuracy    <       0.00516149 Ry

     iteration #  5     ecut=    40.00 Ry     beta=0.70
     CG style diagonalization
     ethr =  3.23E-06,  avg # of iterations =  4.7

     total cpu time spent up to now is      524.7 secs

     total energy              =   -1223.56487670 Ry
     Harris-Foulkes estimate   =   -1223.56580336 Ry
     estimated scf accuracy    <       0.00219061 Ry

     iteration #  6     ecut=    40.00 Ry     beta=0.70
     CG style diagonalization
     ethr =  1.37E-06,  avg # of iterations =  3.7

     total cpu time spent up to now is      534.6 secs

     total energy              =   -1223.56535200 Ry
     Harris-Foulkes estimate   =   -1223.56544192 Ry
     estimated scf accuracy    <       0.00022601 Ry

     iteration #  7     ecut=    40.00 Ry     beta=0.70
     CG style diagonalization
     ethr =  1.41E-07,  avg # of iterations =  3.9

     total cpu time spent up to now is      544.8 secs

     total energy              =   -1223.56540947 Ry
     Harris-Foulkes estimate   =   -1223.56541603 Ry
     estimated scf accuracy    <       0.00001151 Ry

     iteration #  8     ecut=    40.00 Ry     beta=0.70
     CG style diagonalization
     ethr =  7.19E-09,  avg # of iterations =  5.0

     total cpu time spent up to now is      558.0 secs

     total energy              =   -1223.56541591 Ry
     Harris-Foulkes estimate   =   -1223.56541859 Ry
     estimated scf accuracy    <       0.00000837 Ry

     iteration #  9     ecut=    40.00 Ry     beta=0.70
     CG style diagonalization
     ethr =  5.23E-09,  avg # of iterations =  3.5

     total cpu time spent up to now is      567.0 secs

     End of self-consistent calculation

          k = 0.0000 0.0000 0.0000 (  5769 PWs)   bands (ev):

   -36.4655 -36.4653 -36.4584 -36.4475 -18.2751 -18.0170 -17.3325 -17.0126
   -16.9555 -16.9555 -16.9506 -16.9505 -11.5777 -11.5655 -11.5550 -11.5550
   -11.5302 -11.5302 -11.4599 -11.4521 -11.4245 -11.4245 -11.4165 -11.4165
    -3.0754  -2.3994  -1.4917  -0.6606  -0.6606  -0.4563  -0.4562  -0.2988
    -0.2988   0.2592   0.9667   0.9668   1.0070   1.0071   1.2309   2.2196
     2.3485   2.3486   2.3836   2.3846   2.7177   2.7178   2.8567   2.8567
    14.8854  15.8859  16.0886  16.6186  16.7497  16.7497  17.3001  17.3138
    17.3741  17.4282  17.4283  17.5085  17.5086  17.5142  17.5142  17.5664
    17.8383  17.8383  18.1930  18.1930  18.2608  18.2608  18.6943  18.8607
    18.8607  19.4398  19.4398  19.5857  19.5857  19.5971  19.5971  19.6880
    20.4641  20.4641  20.7779  21.2283  21.2283  21.5220  21.5949  21.5949
    22.7481  22.7481  22.8441  23.8232  23.8232  23.8705  23.9458  24.0011

          k = 0.0000 0.0000 0.1430 (  5780 PWs)   bands (ev):

   -36.4689 -36.4652 -36.4532 -36.4518 -18.2458 -18.0677 -17.2729 -17.0512
   -16.9549 -16.9548 -16.9514 -16.9513 -11.5798 -11.5652 -11.5486 -11.5486
   -11.5384 -11.5384 -11.4633 -11.4507 -11.4242 -11.4242 -11.4186 -11.4186
    -3.0158  -2.5792  -1.2075  -0.6467  -0.6466  -0.5293  -0.5293  -0.1519
    -0.1519  -0.0622   0.5300   0.5301   1.4559   1.4559   1.4825   2.1267
     2.2120   2.2121   2.3811   2.3820   2.7586   2.7586   2.8450   2.8450
    14.9757  15.4352  16.7358  16.7368  16.8313  16.8313  16.8674  16.8728
    17.2006  17.2006  17.4434  17.4435  17.5875  17.5875  17.7061  17.9524
    17.9524  18.0538  18.1372  18.1373  18.4663  18.4663  18.7481  18.7666
    18.7667  19.2826  19.2826  19.5199  19.5199  19.5522  19.8488  19.8488
    20.5806  20.6507  20.6507  20.8534  21.1059  21.1060  21.1759  21.1759
    23.1531  23.1532  23.5275  23.8038  23.8487  23.8487  24.0517  24.7089

          k = 0.0000 0.0000-0.2860 (  5780 PWs)   bands (ev):

   -36.4678 -36.4678 -36.4510 -36.4510 -18.1664 -18.1664 -17.1527 -17.1527
   -16.9531 -16.9531 -16.9530 -16.9530 -11.5772 -11.5772 -11.5426 -11.5426
   -11.5426 -11.5426 -11.4590 -11.4590 -11.4182 -11.4182 -11.4182 -11.4182
    -2.8405  -2.8405  -0.6540  -0.6540  -0.6015  -0.6015  -0.6015  -0.6015
     0.1429   0.1429   0.1429   0.1429   1.8589   1.8589   1.8863   1.8863
     1.8863   1.8863   2.3848   2.3848   2.8119   2.8119   2.8119   2.8119
    15.1695  15.1695  16.4774  16.4774  17.0108  17.0108  17.0108  17.0108
    17.3486  17.3486  17.4265  17.4265  17.4265  17.4265  17.8033  17.8033
    18.2006  18.2006  18.2006  18.2006  18.5516  18.5516  18.5516  18.5516
    19.1481  19.1481  19.3453  19.3453  19.3453  19.3453  20.3633  20.3633
    20.3633  20.3633  20.4526  20.4526  21.0039  21.0040  21.0040  21.0040
    23.5512  23.5513  23.6149  23.6149  23.6149  23.6149  24.3478  24.3478

          k = 0.0000 0.3510 0.0000 (  5787 PWs)   bands (ev):

   -36.4680 -36.4597 -36.4596 -36.4539 -18.0917 -17.8468 -17.4343 -17.3343
   -17.1671 -16.9606 -16.9536 -16.7585 -11.5850 -11.5747 -11.5553 -11.5444
   -11.5352 -11.5175 -11.4779 -11.4424 -11.4379 -11.4211 -11.4152 -11.4019
    -2.3740  -1.7980  -1.3945  -0.5971  -0.4885  -0.3690  -0.2843  -0.1449
     0.0927   0.5098   0.5658   0.7660   0.8333   0.9910   1.0007   1.5943
     1.6636   1.8445   2.0885   2.3363   2.3563   2.5540   2.6286   2.7527
    16.0054  16.0491  16.3175  16.7005  16.8774  17.0720  17.1289  17.2193
    17.2546  17.4721  17.5307  17.5529  17.5944  17.8144  17.8710  18.0503
    18.0841  18.1596  18.2753  18.4595  18.6309  18.6500  19.1693  19.2215
    19.2950  19.2984  19.8107  19.8198  19.9050  20.0629  20.2389  20.3826
    20.5266  20.7622  20.9473  21.1822  21.2242  21.2820  21.5961  21.7219
    21.9260  22.0167  22.2183  23.0774  23.1741  23.4111  23.4799  23.5134

          k = 0.0000 0.3510 0.1430 (  5804 PWs)   bands (ev):

   -36.4680 -36.4625 -36.4603 -36.4552 -18.0621 -17.8908 -17.4302 -17.3776
   -17.0707 -16.9596 -16.9546 -16.8016 -11.5894 -11.5847 -11.5565 -11.5469
   -11.5330 -11.5209 -11.4720 -11.4516 -11.4340 -11.4181 -11.4176 -11.4042
    -2.3316  -1.9847  -1.1455  -0.6685  -0.4417  -0.2528  -0.2515  -0.1527
     0.1256   0.1731   0.3197   0.5359   1.0137   1.1701   1.3063   1.6263
     1.6475   1.8754   2.0070   2.2315   2.3657   2.5198   2.6709   2.7456
    16.0215  16.0877  16.3394  16.6371  16.7933  17.0758  17.1753  17.2674
    17.2990  17.3474  17.5430  17.5861  17.8277  17.8373  17.9032  17.9490
    18.0243  18.2340  18.2980  18.4558  18.6544  18.8450  18.9161  19.1688
    19.1759  19.3841  19.6778  19.7075  19.8895  20.1004  20.2718  20.4776
    20.4937  20.5502  20.9757  20.9835  21.2800  21.2863  21.4746  21.4905
    22.2078  22.2855  22.5551  22.6488  23.5139  23.5432  23.6005  23.7912

          k = 0.0000 0.3510-0.2860 (  5816 PWs)   bands (ev):

   -36.4670 -36.4670 -36.4579 -36.4579 -17.9834 -17.9834 -17.4148 -17.4148
   -16.9571 -16.9571 -16.9184 -16.9184 -11.5906 -11.5906 -11.5512 -11.5512
   -11.5303 -11.5303 -11.4619 -11.4619 -11.4252 -11.4252 -11.4129 -11.4129
    -2.2010  -2.2010  -0.8326  -0.8326  -0.2372  -0.2372  -0.1877  -0.1877
    -0.0016  -0.0016   0.2619   0.2619   1.2083   1.2083   1.5612   1.5612
     1.8023   1.8023   2.0089   2.0090   2.4412   2.4412   2.7202   2.7202
    16.1026  16.1026  16.3821  16.3821  16.9913  16.9913  17.2886  17.2886
    17.2928  17.2928  17.6189  17.6189  17.7427  17.7428  17.9443  17.9443
    18.1611  18.1611  18.6347  18.6348  18.6696  18.6696  18.7671  18.7671
    19.4071  19.4071  19.6686  19.6686  19.9880  19.9880  20.1169  20.1169
    20.7141  20.7141  20.7943  20.7943  21.3178  21.3178  21.3861  21.3861
    22.3691  22.3691  23.0026  23.0026  23.2770  23.2770  23.8468  23.8468

          k =-0.4560-0.2633 0.0000 (  5800 PWs)   bands (ev):

   -36.4638 -36.4635 -36.4624 -36.4548 -17.9848 -17.7592 -17.5802 -17.3349
   -17.2696 -16.9623 -16.9546 -16.7334 -11.5858 -11.5822 -11.5580 -11.5481
   -11.5290 -11.4958 -11.4935 -11.4521 -11.4391 -11.4184 -11.4103 -11.4055
    -2.0544  -1.5090  -1.3560  -0.6904  -0.5246  -0.2793  -0.0575   0.2115
     0.2161   0.4146   0.4568   0.6255   0.8384   0.8772   0.9954   1.0995
     1.2121   1.6346   1.9821   2.2584   2.3570   2.6213   2.6386   2.7407
    15.7644  16.5938  16.8100  16.8206  17.0432  17.0691  17.1787  17.2819
    17.3431  17.3453  17.3502  17.4082  17.6132  17.6628  17.8010  17.8183
    18.1375  18.3908  18.4201  18.4320  18.4427  18.9381  19.1023  19.2700
    19.5196  19.8381  19.8823  20.0149  20.1659  20.2151  20.3084  20.4140
    20.5423  20.7018  21.1291  21.4106  21.7302  21.9172  21.9476  21.9843
    22.3077  22.3282  22.5262  22.6493  22.6575  22.9989  23.0624  23.4433

          k =-0.4560-0.2633 0.1430 (  5822 PWs)   bands (ev):

   -36.4669 -36.4645 -36.4606 -36.4594 -17.9535 -17.7901 -17.5736 -17.4650
   -17.0990 -16.9613 -16.9558 -16.7810 -11.5922 -11.5899 -11.5600 -11.5529
   -11.5238 -11.5102 -11.4804 -11.4573 -11.4372 -11.4249 -11.4149 -11.4022
    -2.0185  -1.7171  -1.1079  -0.7260  -0.4493  -0.2205  -0.0343   0.1296
     0.1479   0.1765   0.4607   0.5482   0.8419   0.8707   1.0873   1.2023
     1.3184   1.7309   1.8926   2.2311   2.3266   2.5909   2.6623   2.7333
    15.8548  16.5157  16.7355  16.7585  16.9374  17.0477  17.1817  17.2583
    17.3862  17.4641  17.5510  17.5516  17.5949  17.7208  17.7212  18.1275
    18.2435  18.2830  18.3614  18.4321  18.5202  18.8140  18.9765  19.1277
    19.3264  19.5296  19.5596  20.0982  20.1215  20.1924  20.3600  20.3761
    20.8081  20.8933  21.2951  21.3605  21.4355  21.9810  22.0603  22.3387
    22.3800  22.4494  22.4531  22.6519  22.8018  22.8798  22.9919  23.5349

          k =-0.4560-0.2633-0.2860 (  5804 PWs)   bands (ev):

   -36.4651 -36.4651 -36.4581 -36.4581 -17.8729 -17.8729 -17.5453 -17.5453
   -16.9585 -16.9585 -16.9128 -16.9128 -11.5930 -11.5930 -11.5555 -11.5555
   -11.5117 -11.5117 -11.4613 -11.4613 -11.4287 -11.4287 -11.4116 -11.4116
    -1.9078  -1.9078  -0.8554  -0.8554  -0.1971  -0.1971  -0.0618  -0.0618
     0.0428   0.0428   0.4868   0.4868   0.8583   0.8583   1.1733   1.1733
     1.6507   1.6507   1.9764   1.9764   2.4719   2.4719   2.7095   2.7095
    16.1259  16.1259  16.7296  16.7296  17.0884  17.0884  17.1865  17.1865
    17.3139  17.3139  17.7258  17.7258  17.8747  17.8747  18.0035  18.0035
    18.0977  18.0977  18.4764  18.4764  18.5157  18.5157  19.0533  19.0533
    19.1647  19.1647  19.7865  19.7865  20.0860  20.0860  20.4143  20.4143
    20.9959  20.9959  21.1979  21.1979  21.7503  21.7503  22.3449  22.3449
    22.4448  22.4448  22.7025  22.7025  22.7422  22.7422  23.2779  23.2780

          k =-0.4560 0.0878 0.0000 (  5827 PWs)   bands (ev):

   -36.4674 -36.4637 -36.4625 -36.4590 -17.9843 -17.7598 -17.5808 -17.3349
   -17.2684 -16.9613 -16.9566 -16.7332 -11.5907 -11.5841 -11.5584 -11.5522
   -11.5318 -11.5009 -11.4946 -11.4539 -11.4385 -11.4222 -11.4168 -11.4066
    -1.9888  -1.4882  -1.3555  -0.7786  -0.4998  -0.3620  -0.3349   0.2207
     0.2525   0.3286   0.5345   0.7971   0.8060   0.9326   0.9933   1.0321
     1.5850   1.7352   2.0786   2.2606   2.3035   2.4790   2.4964   2.6262
    15.9646  16.6103  16.6259  16.6420  16.7345  17.0858  17.1762  17.1845
    17.2603  17.4336  17.4974  17.5935  17.6210  17.6842  17.7313  18.0123
    18.2857  18.5870  18.6400  18.7174  18.8959  19.0928  19.0964  19.3741
    19.3742  19.5515  19.7631  19.7724  19.9942  20.1754  20.2172  20.3149
    20.7987  20.8265  20.8508  21.0320  21.1374  21.5440  21.6751  21.8477
    22.0759  22.3450  22.5515  22.6264  22.9203  22.9464  22.9920  23.3399

          k =-0.4560 0.0878 0.1430 (  5825 PWs)   bands (ev):

   -36.4678 -36.4639 -36.4606 -36.4596 -17.9531 -17.7906 -17.5740 -17.4648
   -17.0984 -16.9605 -16.9572 -16.7807 -11.5924 -11.5901 -11.5564 -11.5536
   -11.5262 -11.5096 -11.4792 -11.4585 -11.4381 -11.4237 -11.4143 -11.4060
    -1.9553  -1.6779  -1.1427  -0.8294  -0.4102  -0.3040  -0.2636   0.1330
     0.2124   0.2792   0.3195   0.4575   0.9429   1.0043   1.1717   1.2480
     1.6017   1.7636   2.0000   2.1644   2.3410   2.4886   2.5125   2.5970
    16.0424  16.5169  16.6045  16.6572  16.8151  17.0079  17.1450  17.2299
    17.2645  17.3555  17.4824  17.5941  17.6640  17.7343  18.0781  18.2313
    18.2953  18.4459  18.5831  18.6845  18.7946  18.9369  19.0603  19.1402
    19.3076  19.5057  19.6651  19.9331  20.0362  20.1042  20.2994  20.5628
    20.6166  20.6848  20.8312  21.1019  21.2688  21.4753  21.6048  21.8302
    22.0991  22.3711  22.5766  22.6900  22.8817  22.9535  23.2441  23.3387

          k =-0.4560 0.0878-0.2860 (  5824 PWs)   bands (ev):

   -36.4664 -36.4664 -36.4595 -36.4595 -17.8729 -17.8729 -17.5456 -17.5456
   -16.9589 -16.9589 -16.9123 -16.9123 -11.5951 -11.5951 -11.5558 -11.5558
   -11.5163 -11.5163 -11.4641 -11.4641 -11.4314 -11.4314 -11.4109 -11.4109
    -1.8529  -1.8529  -0.9432  -0.9432  -0.2216  -0.2216  -0.1008  -0.1008
     0.0773   0.0773   0.3252   0.3252   0.9877   0.9877   1.3786   1.3786
     1.7133   1.7133   1.9794   1.9794   2.4350   2.4350   2.5474   2.5474
[...]
     c_bands:  2 eigenvalues not converged
     c_bands:  3 eigenvalues not converged
     ethr =  1.00E-02,  avg # of iterations = 12.6

     total cpu time spent up to now is      775.8 secs

     total energy              =   -1041.24820774 Ry
     Harris-Foulkes estimate   =   -1511.46148285 Ry
     estimated scf accuracy    <     939.40551267 Ry

     iteration #  3     ecut=    40.00 Ry     beta=0.70
     CG style diagonalization
     c_bands:  1 eigenvalues not converged
     c_bands:  1 eigenvalues not converged
     ethr =  1.00E-02,  avg # of iterations = 11.0

     total cpu time spent up to now is      818.7 secs

     total energy              =   -1212.93106350 Ry
     Harris-Foulkes estimate   =   -1243.96682101 Ry
     estimated scf accuracy    <      60.05351223 Ry

     iteration #  4     ecut=    40.00 Ry     beta=0.70
     CG style diagonalization
     ethr =  1.00E-02,  avg # of iterations =  5.2

     total cpu time spent up to now is      838.6 secs

     total energy              =   -1221.84387425 Ry
     Harris-Foulkes estimate   =   -1225.05023673 Ry
     estimated scf accuracy    <       8.11962936 Ry

     iteration #  5     ecut=    40.00 Ry     beta=0.70
     CG style diagonalization
     ethr =  5.07E-03,  avg # of iterations =  3.9

     total cpu time spent up to now is      853.2 secs

     total energy              =   -1223.47115175 Ry
     Harris-Foulkes estimate   =   -1224.36581498 Ry
     estimated scf accuracy    <       2.16653526 Ry

     iteration #  6     ecut=    40.00 Ry     beta=0.70
     CG style diagonalization
     c_bands:  1 eigenvalues not converged
     c_bands:  1 eigenvalues not converged
     ethr =  1.35E-03,  avg # of iterations =  4.3

     total cpu time spent up to now is      869.2 secs

     total energy              =   -1223.90560378 Ry
     Harris-Foulkes estimate   =   -1224.08605329 Ry
     estimated scf accuracy    <       0.49688614 Ry

     iteration #  7     ecut=    40.00 Ry     beta=0.70
     CG style diagonalization
     c_bands:  1 eigenvalues not converged
     c_bands:  1 eigenvalues not converged
     c_bands:  1 eigenvalues not converged
     c_bands:  1 eigenvalues not converged
     ethr =  3.11E-04,  avg # of iterations =  4.1

     total cpu time spent up to now is      884.4 secs

     total energy              =   -1224.02083219 Ry
     Harris-Foulkes estimate   =   -1224.03401022 Ry
     estimated scf accuracy    <       0.02593257 Ry

     iteration #  8     ecut=    40.00 Ry     beta=0.70
     CG style diagonalization
     c_bands:  1 eigenvalues not converged
     c_bands:  1 eigenvalues not converged
     c_bands:  3 eigenvalues not converged
     ethr =  1.62E-05,  avg # of iterations =  5.4

     total cpu time spent up to now is      905.3 secs

     total energy              =   -1224.03629201 Ry
     Harris-Foulkes estimate   =   -1224.04054074 Ry
     estimated scf accuracy    <       0.01066827 Ry

     iteration #  9     ecut=    40.00 Ry     beta=0.70
     CG style diagonalization
     c_bands:  1 eigenvalues not converged
     c_bands:  3 eigenvalues not converged
     ethr =  6.67E-06,  avg # of iterations =  3.9

     total cpu time spent up to now is      919.5 secs

     total energy              =   -1224.03720828 Ry
     Harris-Foulkes estimate   =   -1224.03940498 Ry
     estimated scf accuracy    <       0.00655687 Ry

     iteration # 10     ecut=    40.00 Ry     beta=0.70
     CG style diagonalization
     c_bands:  1 eigenvalues not converged
     ethr =  4.10E-06,  avg # of iterations =  3.4

     total cpu time spent up to now is      932.0 secs

     total energy              =   -1224.03856377 Ry
     Harris-Foulkes estimate   =   -1224.03875501 Ry
     estimated scf accuracy    <       0.00072439 Ry

     iteration # 11     ecut=    40.00 Ry     beta=0.70
     CG style diagonalization
     c_bands:  1 eigenvalues not converged
     ethr =  4.53E-07,  avg # of iterations =  3.9

     total cpu time spent up to now is      946.4 secs

     total energy              =   -1224.03871594 Ry
     Harris-Foulkes estimate   =   -1224.03874016 Ry
     estimated scf accuracy    <       0.00007633 Ry

     iteration # 12     ecut=    40.00 Ry     beta=0.70
     CG style diagonalization
     ethr =  4.77E-08,  avg # of iterations =  4.6

     total cpu time spent up to now is      963.4 secs

     End of self-consistent calculation

          k = 0.0000 0.0000 0.0000 (  7547 PWs)   bands (ev):

   -36.4707 -36.4629 -36.4522 -36.4443 -18.2481 -17.9875 -17.3063 -16.9838
   -16.9241 -16.9241 -16.9186 -16.9186 -11.6440 -11.6267 -11.6192 -11.6192
   -11.6031 -11.6031 -11.5398 -11.5365 -11.5093 -11.5092 -11.4957 -11.4957
    -3.0794  -2.4107  -1.5078  -0.6767  -0.6767  -0.4720  -0.4720  -0.3139
    -0.3138   0.2454   0.9423   0.9423   0.9895   0.9895   1.2120   2.1913
     2.3178   2.3179   2.3559   2.3612   2.6968   2.6968   2.8277   2.8277
    14.8757  15.8765  16.0826  16.6161  16.7425  16.7425  17.2917  17.2971
    17.3626  17.4186  17.4187  17.4979  17.4979  17.5065  17.5065  17.5559
    17.8296  17.8296  18.1807  18.1807  18.2512  18.2513  18.6826  18.8485
    18.8486  19.4268  19.4268  19.5734  19.5734  19.5874  19.5874  19.6774
    20.4485  20.4485  20.7638  21.2161  21.2161  21.5048  21.5790  21.5790
    22.7390  22.7390  22.8216  23.8000  23.8003  23.8515  23.9138  23.9666

          k = 0.0000 0.0000 0.1430 (  7565 PWs)   bands (ev):

   -36.4698 -36.4645 -36.4502 -36.4458 -18.2190 -18.0391 -17.2464 -17.0224
   -16.9229 -16.9229 -16.9197 -16.9197 -11.6486 -11.6326 -11.6160 -11.6160
   -11.6091 -11.6091 -11.5359 -11.5294 -11.5070 -11.5070 -11.4982 -11.4982
    -3.0210  -2.5901  -1.2210  -0.6623  -0.6623  -0.5443  -0.5443  -0.1675
    -0.1675  -0.0824   0.5127   0.5127   1.4362   1.4362   1.4641   2.0979
     2.1820   2.1820   2.3565   2.3614   2.7357   2.7357   2.8175   2.8175
    14.9662  15.4284  16.7243  16.7292  16.8241  16.8241  16.8598  16.8627
    17.1926  17.1926  17.4328  17.4328  17.5762  17.5763  17.6972  17.9434
    17.9434  18.0407  18.1263  18.1263  18.4552  18.4552  18.7339  18.7544
    18.7545  19.2696  19.2696  19.5073  19.5074  19.5383  19.8384  19.8384
    20.5680  20.6369  20.6369  20.8389  21.0919  21.0919  21.1637  21.1638
    23.1398  23.1399  23.4930  23.7561  23.8303  23.8304  24.0215  24.0914

          k = 0.0000 0.0000-0.2860 (  7570 PWs)   bands (ev):

   -36.4675 -36.4675 -36.4476 -36.4476 -18.1383 -18.1383 -17.1248 -17.1248
   -16.9217 -16.9217 -16.9216 -16.9216 -11.6418 -11.6418 -11.6134 -11.6133
   -11.6133 -11.6133 -11.5301 -11.5301 -11.5026 -11.5026 -11.5026 -11.5026
    -2.8494  -2.8494  -0.6634  -0.6634  -0.6185  -0.6185  -0.6185  -0.6185
     0.1243   0.1243   0.1243   0.1243   1.8367   1.8367   1.8612   1.8612
     1.8613   1.8613   2.3581   2.3581   2.7879   2.7879   2.7879   2.7879
    15.1616  15.1616  16.4671  16.4671  17.0038  17.0038  17.0038  17.0038
    17.3432  17.3432  17.4144  17.4144  17.4145  17.4145  17.7914  17.7914
    18.1897  18.1897  18.1897  18.1897  18.5396  18.5396  18.5396  18.5396
    19.1339  19.1339  19.3316  19.3316  19.3316  19.3316  20.3523  20.3523
    20.3523  20.3523  20.4433  20.4433  20.9917  20.9917  20.9917  20.9917
    23.5110  23.5111  23.5950  23.5953  23.5954  23.5955  24.3187  24.3188

          k = 0.0000 0.3510 0.0000 (  7617 PWs)   bands (ev):

   -36.4669 -36.4593 -36.4562 -36.4486 -18.0645 -17.8178 -17.4050 -17.3084
   -17.1364 -16.9299 -16.9224 -16.7285 -11.6499 -11.6427 -11.6259 -11.6161
   -11.6030 -11.5841 -11.5550 -11.5243 -11.5180 -11.5019 -11.4935 -11.4889
    -2.3828  -1.8102  -1.4049  -0.6113  -0.5058  -0.3855  -0.3007  -0.1608
     0.0745   0.4926   0.5440   0.7480   0.8105   0.9714   0.9827   1.5773
     1.6443   1.8229   2.0638   2.3147   2.3237   2.5261   2.6050   2.7300
    15.9953  16.0358  16.3068  16.6911  16.8633  17.0611  17.1197  17.2069
    17.2446  17.4602  17.5200  17.5431  17.5816  17.8021  17.8609  18.0378
    18.0730  18.1482  18.2580  18.4469  18.6185  18.6393  19.1550  19.2098
    19.2809  19.2834  19.7955  19.8057  19.8876  20.0461  20.2186  20.3649
    20.5116  20.7436  20.9295  21.1631  21.2048  21.2637  21.5805  21.7031
    21.9107  21.9955  22.2053  23.0555  23.1441  23.3866  23.4567  23.4959

          k = 0.0000 0.3510 0.1430 (  7603 PWs)   bands (ev):

   -36.4661 -36.4614 -36.4540 -36.4493 -18.0346 -17.8620 -17.4013 -17.3500
   -17.0407 -16.9286 -16.9233 -16.7716 -11.6540 -11.6478 -11.6245 -11.6179
   -11.5980 -11.5872 -11.5455 -11.5243 -11.5130 -11.4997 -11.4963 -11.4901
    -2.3396  -1.9946  -1.1579  -0.6836  -0.4570  -0.2688  -0.2661  -0.1692
     0.1089   0.1567   0.3034   0.5171   0.9967   1.1532   1.2862   1.6074
     1.6280   1.8523   1.9838   2.2053   2.3434   2.4936   2.6472   2.7222
    16.0117  16.0752  16.3279  16.6244  16.7838  17.0652  17.1651  17.2579
    17.2872  17.3364  17.5306  17.5748  17.8169  17.8265  17.8932  17.9372
    18.0147  18.2228  18.2830  18.4427  18.6433  18.8333  18.9035  19.1543
    19.1608  19.3697  19.6633  19.6930  19.8754  20.0853  20.2561  20.4630
    20.4777  20.5332  20.9576  20.9649  21.2651  21.2696  21.4548  21.4757
    22.1839  22.2629  22.5348  22.6302  23.4898  23.5213  23.5784  23.7659

          k = 0.0000 0.3510-0.2860 (  7590 PWs)   bands (ev):

   -36.4642 -36.4642 -36.4511 -36.4511 -17.9553 -17.9553 -17.3861 -17.3861
   -16.9258 -16.9258 -16.8884 -16.8884 -11.6534 -11.6534 -11.6209 -11.6209
   -11.5934 -11.5934 -11.5310 -11.5310 -11.5036 -11.5036 -11.4946 -11.4946
    -2.2087  -2.2087  -0.8457  -0.8457  -0.2524  -0.2524  -0.2035  -0.2035
    -0.0157  -0.0157   0.2458   0.2458   1.1938   1.1938   1.5420   1.5420
     1.7798   1.7798   1.9854   1.9854   2.4167   2.4167   2.6964   2.6964
    16.0919  16.0919  16.3708  16.3708  16.9801  16.9801  17.2794  17.2794
    17.2814  17.2814  17.6078  17.6078  17.7308  17.7308  17.9354  17.9354
    18.1491  18.1491  18.6237  18.6237  18.6565  18.6565  18.7552  18.7552
    19.3917  19.3917  19.6542  19.6542  19.9722  19.9722  20.1037  20.1037
    20.7000  20.7000  20.7783  20.7783  21.3034  21.3034  21.3672  21.3672
    22.3446  22.3446  22.9798  22.9800  23.2554  23.2557  23.8188  23.8209

          k =-0.4560-0.2633 0.0000 (  7604 PWs)   bands (ev):

   -36.4644 -36.4586 -36.4570 -36.4507 -17.9574 -17.7295 -17.5511 -17.3088
   -17.2392 -16.9314 -16.9233 -16.7033 -11.6490 -11.6470 -11.6283 -11.6180
   -11.5966 -11.5658 -11.5654 -11.5247 -11.5168 -11.4987 -11.4951 -11.4856
    -2.0639  -1.5223  -1.3666  -0.7002  -0.5417  -0.2961  -0.0769   0.1932
     0.2026   0.4008   0.4376   0.6017   0.8263   0.8578   0.9806   1.0763
     1.1953   1.6155   1.9587   2.2385   2.3260   2.5979   2.6118   2.7169
    15.7541  16.5853  16.7977  16.8108  17.0327  17.0515  17.1670  17.2693
    17.3313  17.3332  17.3413  17.3960  17.5997  17.6496  17.7885  17.8031
    18.1264  18.3806  18.4092  18.4203  18.4311  18.9255  19.0872  19.2535
    19.5067  19.8250  19.8657  19.9992  20.1491  20.2037  20.2859  20.3996
    20.5208  20.6849  21.1102  21.3859  21.7155  21.9063  21.9203  21.9717
    22.2907  22.3131  22.5067  22.6212  22.6275  22.9713  23.0387  23.4160

          k =-0.4560-0.2633 0.1430 (  7600 PWs)   bands (ev):

   -36.4640 -36.4603 -36.4550 -36.4514 -17.9261 -17.7608 -17.5444 -17.4369
   -17.0698 -16.9303 -16.9247 -16.7510 -11.6545 -11.6518 -11.6265 -11.6205
   -11.5900 -11.5755 -11.5496 -11.5262 -11.5144 -11.4984 -11.4970 -11.4856
    -2.0277  -1.7274  -1.1185  -0.7364  -0.4642  -0.2368  -0.0526   0.1162
     0.1318   0.1612   0.4446   0.5276   0.8322   0.8550   1.0723   1.1874
     1.2970   1.7111   1.8702   2.2047   2.3042   2.5651   2.6396   2.7101
    15.8449  16.5046  16.7267  16.7456  16.9276  17.0342  17.1714  17.2468
    17.3740  17.4513  17.5406  17.5412  17.5816  17.7043  17.7082  18.1167
    18.2305  18.2709  18.3526  18.4218  18.5082  18.8014  18.9641  19.1125
    19.3098  19.5148  19.5438  20.0843  20.1062  20.1774  20.3459  20.3610
    20.7883  20.8774  21.2790  21.3449  21.4155  21.9551  22.0391  22.3242
    22.3621  22.4265  22.4347  22.6241  22.7836  22.8575  22.9706  23.6486

          k =-0.4560-0.2633-0.2860 (  7620 PWs)   bands (ev):

   -36.4626 -36.4626 -36.4530 -36.4530 -17.8452 -17.8452 -17.5168 -17.5168
   -16.9276 -16.9276 -16.8832 -16.8832 -11.6587 -11.6587 -11.6242 -11.6242
   -11.5824 -11.5824 -11.5349 -11.5349 -11.5070 -11.5070 -11.4918 -11.4918
    -1.9169  -1.9169  -0.8658  -0.8658  -0.2139  -0.2139  -0.0768  -0.0768
     0.0228   0.0228   0.4681   0.4681   0.8450   0.8450   1.1561   1.1561
     1.6271   1.6271   1.9537   1.9537   2.4437   2.4437   2.6862   2.6862
    16.1155  16.1155  16.7170  16.7170  17.0787  17.0787  17.1744  17.1744
    17.3016  17.3016  17.7118  17.7118  17.8636  17.8636  17.9915  17.9915
    18.0855  18.0855  18.4646  18.4646  18.5051  18.5051  19.0387  19.0387
    19.1498  19.1498  19.7688  19.7688  20.0705  20.0705  20.3998  20.3998
    20.9787  20.9787  21.1801  21.1801  21.7309  21.7309  22.3163  22.3163
    22.4266  22.4266  22.6762  22.6762  22.7193  22.7193  23.2517  23.2524

          k =-0.4560 0.0878 0.0000 (  7600 PWs)   bands (ev):

   -36.4645 -36.4582 -36.4569 -36.4510 -17.9572 -17.7302 -17.5514 -17.3089
   -17.2377 -16.9302 -16.9251 -16.7032 -11.6505 -11.6466 -11.6221 -11.6190
   -11.5964 -11.5682 -11.5659 -11.5285 -11.5167 -11.4972 -11.4956 -11.4831
    -1.9964  -1.4983  -1.3658  -0.7901  -0.5152  -0.3752  -0.3493   0.2020
     0.2353   0.3114   0.5209   0.7782   0.7890   0.9165   0.9754   1.0163
     1.5687   1.7166   2.0565   2.2400   2.2767   2.4590   2.4762   2.6018
    15.9535  16.5974  16.6132  16.6308  16.7242  17.0763  17.1637  17.1731
    17.2491  17.4232  17.4853  17.5820  17.6101  17.6708  17.7185  18.0007
    18.2753  18.5699  18.6287  18.7065  18.8825  19.0791  19.0829  19.3589
    19.3614  19.5368  19.7479  19.7593  19.9786  20.1588  20.2000  20.3000
    20.7792  20.8091  20.8321  21.0121  21.1155  21.5289  21.6612  21.8306
    22.0602  22.3296  22.5180  22.6053  22.8997  22.9243  22.9739  23.3142

          k =-0.4560 0.0878 0.1430 (  7612 PWs)   bands (ev):

   -36.4640 -36.4604 -36.4551 -36.4514 -17.9258 -17.7614 -17.5450 -17.4369
   -17.0692 -16.9297 -16.9261 -16.7506 -11.6551 -11.6528 -11.6220 -11.6196
   -11.5916 -11.5781 -11.5512 -11.5286 -11.5154 -11.5012 -11.4935 -11.4856
    -1.9633  -1.6873  -1.1530  -0.8407  -0.4252  -0.3184  -0.2785   0.1159
     0.1957   0.2638   0.3016   0.4414   0.9275   0.9910   1.1526   1.2279
     1.5840   1.7440   1.9769   2.1395   2.3180   2.4682   2.4910   2.5712
    16.0314  16.5044  16.5909  16.6445  16.8064  16.9970  17.1342  17.2196
    17.2525  17.3442  17.4709  17.5817  17.6525  17.7234  18.0657  18.2175
    18.2841  18.4326  18.5720  18.6707  18.7826  18.9231  19.0464  19.1263
    19.2921  19.4912  19.6513  19.9180  20.0212  20.0881  20.2816  20.5449
    20.5986  20.6670  20.8147  21.0837  21.2516  21.4561  21.5829  21.8146
    22.0806  22.3472  22.5565  22.6669  22.8574  22.9309  23.2213  23.3126

          k =-0.4560 0.0878-0.2860 (  7612 PWs)   bands (ev):

   -36.4626 -36.4626 -36.4529 -36.4528 -17.8448 -17.8448 -17.5170 -17.5170
   -16.9280 -16.9280 -16.8827 -16.8827 -11.6579 -11.6579 -11.6211 -11.6211
   -11.5841 -11.5841 -11.5358 -11.5358 -11.5088 -11.5088 -11.4896 -11.4896
    -1.8613  -1.8613  -0.9549  -0.9549  -0.2372  -0.2372  -0.1151  -0.1151
     0.0607   0.0607   0.3085   0.3085   0.9733   0.9733   1.3595   1.3595
     1.6935   1.6935   1.9555   1.9555   2.4124   2.4124   2.5249   2.5249
    16.2570  16.2570  16.5709  16.5709  16.9610  16.9610  17.1921  17.1921
    17.2804  17.2804  17.5494  17.5494  17.9222  17.9222  18.0880  18.0880
    18.2432  18.2432  18.5968  18.5968  18.8626  18.8626  19.0248  19.0248
    19.3571  19.3571  19.6677  19.6677  20.1459  20.1459  20.3018  20.3018
    20.7186  20.7186  20.8640  20.8640  21.4022  21.4022  21.8497  21.8497
    22.0217  22.0217  22.6429  22.6429  23.0117  23.0118  23.4189  23.4195

     the Fermi energy is    20.5005 ev

!    total energy              =   -1224.03874825 Ry
     Harris-Foulkes estimate   =   -1224.03874939 Ry
     estimated scf accuracy    <       0.00000143 Ry

     The total energy is the sum of the following terms:

     one-electron contribution =     -19.71774368 Ry
     hartree contribution      =     119.57221350 Ry
     xc contribution           =    -147.73848735 Ry
     ewald contribution        =   -1175.36379602 Ry
     smearing contrib. (-TS)   =      -0.79093470 Ry

     convergence has been achieved in  12 iterations

     Forces acting on atoms (Ry/au):

     atom    1 type  1   force =     0.00000000    0.00000000    0.00162115
     atom    2 type  1   force =     0.00000000    0.00000000    0.00162115
     atom    3 type  1   force =     0.00000000    0.00000000   -0.00162115
     atom    4 type  1   force =     0.00000000    0.00000000   -0.00162115
     atom    5 type  2   force =     0.00000000    0.00000000    0.00000000
     atom    6 type  2   force =     0.00000000    0.00000000    0.00000000
     atom    7 type  2   force =     0.00000000    0.00324427    0.00000000
     atom    8 type  2   force =    -0.00280962    0.00162214    0.00000000
     atom    9 type  2   force =     0.00280962    0.00162214    0.00000000
     atom   10 type  2   force =    -0.00280962   -0.00162214    0.00000000
     atom   11 type  2   force =     0.00280962   -0.00162214    0.00000000
     atom   12 type  2   force =     0.00000000   -0.00324427    0.00000000

     Total force =     0.008583     Total SCF correction =     0.000000


     entering subroutine stress ...

          total   stress  (Ry/bohr**3)                   (kbar)     P=  158.47
   0.00112807   0.00000000   0.00000000        165.94      0.00      0.00
   0.00000000   0.00112807   0.00000000          0.00    165.94      0.00
   0.00000000   0.00000000   0.00097560          0.00      0.00    143.52


     Writing output data file Prototype-La-hP12-MgZn2.save
 
     init_run     :      4.49s CPU      5.58s WALL (       2 calls)
     electrons    :    799.41s CPU    940.74s WALL (       5 calls)
     update_pot   :      2.85s CPU      2.86s WALL (       3 calls)
     forces       :      4.59s CPU      4.80s WALL (       5 calls)
     stress       :     12.72s CPU     13.12s WALL (       5 calls)

     Called by init_run:
     wfcinit      :      3.23s CPU      4.29s WALL (       2 calls)
     potinit      :      0.53s CPU      0.54s WALL (       2 calls)

     Called by electrons:
     c_bands      :    775.97s CPU    908.50s WALL (      49 calls)
     sum_band     :     22.90s CPU     31.38s WALL (      49 calls)
     v_of_rho     :      0.12s CPU      0.15s WALL (      54 calls)
     mix_rho      :      0.13s CPU      0.16s WALL (      49 calls)

     Called by c_bands:
     init_us_2    :      2.02s CPU      2.38s WALL (    1320 calls)
     ccgdiagg     :    707.00s CPU    819.16s WALL (     650 calls)
     wfcrot       :     70.49s CPU     90.37s WALL (     662 calls)

     Called by *cgdiagg:
     h_psi        :    512.52s CPU    635.32s WALL (  309118 calls)
     cdiaghg      :      2.24s CPU      2.38s WALL (     662 calls)

     Called by h_psi:
     add_vuspsi   :     87.21s CPU     96.35s WALL (  309118 calls)

     General routines
     calbec       :    211.98s CPU    224.84s WALL (  617694 calls)
     fft          :      0.16s CPU      0.19s WALL (     239 calls)
     fftw         :    305.86s CPU    392.14s WALL (  800464 calls)
     davcio       :      0.74s CPU      2.68s WALL (    1908 calls)
 
     Parallel routines
     fft_scatter  :    129.21s CPU    168.15s WALL (  800703 calls)
 
     PWSCF        : 13m44.44s CPU    16m 7.72s WALL

 
   This run was terminated on:  18:57:54  22Mar2018            

=------------------------------------------------------------------------------=
   JOB DONE.
=------------------------------------------------------------------------------=
