
     Program PWSCF v.5.0.2 starts on 22Mar2018 at 17:32:57 

     This program is part of the open-source Quantum ESPRESSO suite
     for quantum simulation of materials; please cite
         "P. Giannozzi et al., J. Phys.:Condens. Matter 21 395502 (2009);
          URL http://www.quantum-espresso.org", 
     in publications or presentations arising from this work. More details at
     http://www.quantum-espresso.org/quote.php

     Parallel version (MPI), running on     4 processors
     R & G space division:  proc/nbgrp/npool/nimage =       4

     Current dimensions of program PWSCF are:
     Max number of different atomic species (ntypx) = 10
     Max number of k-points (npk) =  40000
     Max angular momentum in pseudopotentials (lmaxx) =  3
     Waiting for input...
     Reading input from standard input

     Subspace diagonalization in iterative solution of the eigenvalue problem:
     a serial algorithm will be used

 
     Parallelization info
     --------------------
     sticks:   dense  smooth     PW     G-vecs:    dense   smooth      PW
     Min         233     233     69                 5311     5311     851
     Max         234     234     70                 5314     5314     854
     Sum         933     933    277                21247    21247    3407
 


     bravais-lattice index     =            0
     lattice parameter (alat)  =       8.5346  a.u.
     unit-cell volume          =     621.6493 (a.u.)^3
     number of atoms/cell      =            8
     number of atomic types    =            2
     number of electrons       =       120.00
     number of Kohn-Sham states=           72
     kinetic-energy cutoff     =      40.0000  Ry
     charge density cutoff     =     160.0000  Ry
     convergence threshold     =      1.0E-04
     mixing beta               =       0.7000
     number of iterations used =            8  plain     mixing
     Exchange-correlation      = SLA-PZ-NOGX-NOGC ( 1 1 0 0 0)
     EXX-fraction              =        0.00
     nstep                     =           50


     celldm(1)=   8.534573  celldm(2)=   0.000000  celldm(3)=   0.000000
     celldm(4)=   0.000000  celldm(5)=   0.000000  celldm(6)=   0.000000

     crystal axes: (cart. coord. in units of alat)
               a(1) = (   1.000000   0.000000   0.000000 )  
               a(2) = (   0.000000   1.000000   0.000000 )  
               a(3) = (   0.000000   0.000000   1.000000 )  

     reciprocal axes: (cart. coord. in units 2 pi/alat)
               b(1) = (  1.000000  0.000000  0.000000 )  
               b(2) = (  0.000000  1.000000  0.000000 )  
               b(3) = (  0.000000  0.000000  1.000000 )  


     PseudoPot. # 1 for Nd read from file:
     /home/cwx6513/pp.La/Nd.UPF
     MD5 check sum: c66c5b6abe7b5840ced9b1e244e3bed6
     Pseudo is Norm-conserving, Zval = 14.0
     Generated in analytical, separable form
     Using radial grid of 1257 points,  6 beta functions with: 
                l(1) =   0
                l(2) =   0
                l(3) =   1
                l(4) =   1
                l(5) =   2
                l(6) =   3

     PseudoPot. # 2 for Gd read from file:
     /home/cwx6513/pp.La/Gd.UPF
     MD5 check sum: 09a8be538722f05520810cb6aac0efd2
     Pseudo is Norm-conserving, Zval = 18.0
     Generated in analytical, separable form
     Using radial grid of 1263 points,  6 beta functions with: 
                l(1) =   0
                l(2) =   0
                l(3) =   1
                l(4) =   1
                l(5) =   2
                l(6) =   3

     atomic species   valence    mass     pseudopotential
        Cr            14.00    51.99610     Nd( 1.00)
        Si            18.00    28.08550     Gd( 1.00)

     48 Sym. Ops., with inversion, found (24 have fractional translation)



   Cartesian axes

     site n.     atom                  positions (alat units)
         1           Cr  tau(   1) = (   0.0000000   0.5000000   0.2500000  )
         2           Cr  tau(   2) = (   0.0000000   0.5000000   0.7500000  )
         3           Cr  tau(   3) = (   0.5000000   0.7500000   0.0000000  )
         4           Cr  tau(   4) = (   0.5000000   0.2500000   0.0000000  )
         5           Cr  tau(   5) = (   0.7500000   0.0000000   0.5000000  )
         6           Cr  tau(   6) = (   0.2500000   0.0000000   0.5000000  )
         7           Si  tau(   7) = (   0.5000000   0.5000000   0.5000000  )
         8           Si  tau(   8) = (   0.0000000   0.0000000   0.0000000  )

     number of k points=    48  gaussian smearing, width (Ry)=  0.1000
                       cart. coord. in units 2pi/alat
        k(    1) = (   0.0000000   0.0000000   0.0000000), wk =   0.0095238
        k(    2) = (   0.0000000   0.0000000   0.1428571), wk =   0.0190476
        k(    3) = (   0.0000000   0.0000000   0.2857143), wk =   0.0190476
        k(    4) = (   0.0000000   0.0000000   0.4285714), wk =   0.0190476
        k(    5) = (   0.0000000   0.1666667   0.0000000), wk =   0.0190476
        k(    6) = (   0.0000000   0.1666667   0.1428571), wk =   0.0380952
        k(    7) = (   0.0000000   0.1666667   0.2857143), wk =   0.0380952
        k(    8) = (   0.0000000   0.1666667   0.4285714), wk =   0.0380952
        k(    9) = (   0.0000000   0.3333333   0.0000000), wk =   0.0190476
        k(   10) = (   0.0000000   0.3333333   0.1428571), wk =   0.0380952
        k(   11) = (   0.0000000   0.3333333   0.2857143), wk =   0.0380952
        k(   12) = (   0.0000000   0.3333333   0.4285714), wk =   0.0380952
        k(   13) = (   0.0000000  -0.5000000   0.0000000), wk =   0.0095238
        k(   14) = (   0.0000000  -0.5000000   0.1428571), wk =   0.0190476
        k(   15) = (   0.0000000  -0.5000000   0.2857143), wk =   0.0190476
        k(   16) = (   0.0000000  -0.5000000   0.4285714), wk =   0.0190476
        k(   17) = (   0.2000000   0.0000000   0.0000000), wk =   0.0190476
        k(   18) = (   0.2000000   0.0000000   0.1428571), wk =   0.0380952
        k(   19) = (   0.2000000   0.0000000   0.2857143), wk =   0.0380952
        k(   20) = (   0.2000000   0.0000000   0.4285714), wk =   0.0380952
        k(   21) = (   0.2000000   0.1666667   0.0000000), wk =   0.0380952
        k(   22) = (   0.2000000   0.1666667   0.1428571), wk =   0.0761905
        k(   23) = (   0.2000000   0.1666667   0.2857143), wk =   0.0761905
        k(   24) = (   0.2000000   0.1666667   0.4285714), wk =   0.0761905
        k(   25) = (   0.2000000   0.3333333   0.0000000), wk =   0.0380952
        k(   26) = (   0.2000000   0.3333333   0.1428571), wk =   0.0761905
        k(   27) = (   0.2000000   0.3333333   0.2857143), wk =   0.0761905
        k(   28) = (   0.2000000   0.3333333   0.4285714), wk =   0.0761905
        k(   29) = (   0.2000000  -0.5000000   0.0000000), wk =   0.0190476
        k(   30) = (   0.2000000  -0.5000000   0.1428571), wk =   0.0380952
        k(   31) = (   0.2000000  -0.5000000   0.2857143), wk =   0.0380952
        k(   32) = (   0.2000000  -0.5000000   0.4285714), wk =   0.0380952
        k(   33) = (   0.4000000   0.0000000   0.0000000), wk =   0.0190476
        k(   34) = (   0.4000000   0.0000000   0.1428571), wk =   0.0380952
        k(   35) = (   0.4000000   0.0000000   0.2857143), wk =   0.0380952
        k(   36) = (   0.4000000   0.0000000   0.4285714), wk =   0.0380952
        k(   37) = (   0.4000000   0.1666667   0.0000000), wk =   0.0380952
        k(   38) = (   0.4000000   0.1666667   0.1428571), wk =   0.0761905
        k(   39) = (   0.4000000   0.1666667   0.2857143), wk =   0.0761905
        k(   40) = (   0.4000000   0.1666667   0.4285714), wk =   0.0761905
        k(   41) = (   0.4000000   0.3333333   0.0000000), wk =   0.0380952
        k(   42) = (   0.4000000   0.3333333   0.1428571), wk =   0.0761905
        k(   43) = (   0.4000000   0.3333333   0.2857143), wk =   0.0761905
        k(   44) = (   0.4000000   0.3333333   0.4285714), wk =   0.0761905
        k(   45) = (   0.4000000  -0.5000000   0.0000000), wk =   0.0190476
        k(   46) = (   0.4000000  -0.5000000   0.1428571), wk =   0.0380952
        k(   47) = (   0.4000000  -0.5000000   0.2857143), wk =   0.0380952
        k(   48) = (   0.4000000  -0.5000000   0.4285714), wk =   0.0380952

     Dense  grid:    21247 G-vectors     FFT dimensions: (  36,  36,  36)

     Largest allocated arrays     est. size (Mb)     dimensions
        Kohn-Sham Wavefunctions         0.75 Mb     (    683,   72)
        NL pseudopotentials             1.67 Mb     (    683,  160)
        Each V/rho on FFT grid          0.18 Mb     (  11664)
        Each G-vector array             0.04 Mb     (   5314)
        G-vector shells                 0.04 Mb     (   5314)
     Largest temporary arrays     est. size (Mb)     dimensions
        Each subspace H/S matrix        0.08 Mb     (  72,  72)
        Each <psi_i|beta_j> matrix      0.18 Mb     (    160,   72)
        Arrays for rho mixing           1.42 Mb     (  11664,   8)

     Initial potential from superposition of free atoms

     Starting from uniform charge
     Starting wfc are    0 randomized atomic wfcs

     total cpu time spent up to now is        3.4 secs

     Self-consistent Calculation

     iteration #  1     ecut=    40.00 Ry     beta=0.70
     CG style diagonalization
     c_bands:  1 eigenvalues not converged
     c_bands:  1 eigenvalues not converged
     c_bands:  1 eigenvalues not converged
     c_bands:  1 eigenvalues not converged
     c_bands:  2 eigenvalues not converged
     c_bands:  1 eigenvalues not converged
     c_bands:  1 eigenvalues not converged
     c_bands:  3 eigenvalues not converged
     c_bands:  1 eigenvalues not converged
     c_bands:  1 eigenvalues not converged
     c_bands:  1 eigenvalues not converged
     c_bands:  1 eigenvalues not converged
     c_bands:  1 eigenvalues not converged
     c_bands:  1 eigenvalues not converged
     c_bands:  1 eigenvalues not converged
     c_bands:  1 eigenvalues not converged
     c_bands:  1 eigenvalues not converged
     c_bands:  2 eigenvalues not converged
     c_bands:  1 eigenvalues not converged
     c_bands:  1 eigenvalues not converged
     c_bands:  1 eigenvalues not converged
     ethr =  1.00E-02,  avg # of iterations = 11.3

     total cpu time spent up to now is       36.8 secs

     total energy              =    -752.84240821 Ry
     Harris-Foulkes estimate   =   -1169.08622359 Ry
     estimated scf accuracy    <     509.71068115 Ry

     iteration #  2     ecut=    40.00 Ry     beta=0.70
     CG style diagonalization
     c_bands:  1 eigenvalues not converged
     c_bands:  1 eigenvalues not converged
     c_bands:  2 eigenvalues not converged
     c_bands:  2 eigenvalues not converged
     c_bands:  1 eigenvalues not converged
     c_bands:  2 eigenvalues not converged
     c_bands:  3 eigenvalues not converged
     c_bands:  3 eigenvalues not converged
     c_bands:  4 eigenvalues not converged
     c_bands:  5 eigenvalues not converged
     c_bands:  3 eigenvalues not converged
     c_bands:  2 eigenvalues not converged
     c_bands:  2 eigenvalues not converged
     c_bands:  1 eigenvalues not converged
     c_bands:  2 eigenvalues not converged
     c_bands:  4 eigenvalues not converged
     c_bands:  2 eigenvalues not converged
     c_bands:  1 eigenvalues not converged
     c_bands:  3 eigenvalues not converged
     c_bands:  1 eigenvalues not converged
     c_bands:  1 eigenvalues not converged
     c_bands:  3 eigenvalues not converged
     c_bands:  1 eigenvalues not converged
     c_bands:  1 eigenvalues not converged
     c_bands:  1 eigenvalues not converged
     c_bands:  1 eigenvalues not converged
     c_bands:  1 eigenvalues not converged
     c_bands:  1 eigenvalues not converged
     c_bands:  2 eigenvalues not converged
     c_bands:  2 eigenvalues not converged
     c_bands:  5 eigenvalues not converged
     c_bands:  1 eigenvalues not converged
     c_bands:  3 eigenvalues not converged
     c_bands:  4 eigenvalues not converged
     c_bands:  2 eigenvalues not converged
     c_bands:  2 eigenvalues not converged
     c_bands:  1 eigenvalues not converged
     c_bands:  2 eigenvalues not converged
     c_bands:  1 eigenvalues not converged
     c_bands:  2 eigenvalues not converged
     c_bands:  2 eigenvalues not converged
     c_bands:  5 eigenvalues not converged
     c_bands:  4 eigenvalues not converged
     c_bands:  1 eigenvalues not converged
     c_bands:  2 eigenvalues not converged
     ethr =  1.00E-02,  avg # of iterations = 10.3

     total cpu time spent up to now is       66.6 secs

     total energy              =   -1010.60376170 Ry
     Harris-Foulkes estimate   =   -1319.35648065 Ry
     estimated scf accuracy    <     579.06709336 Ry

     iteration #  3     ecut=    40.00 Ry     beta=0.70
     CG style diagonalization
     c_bands:  1 eigenvalues not converged
     c_bands:  1 eigenvalues not converged
     c_bands:  1 eigenvalues not converged
     c_bands:  1 eigenvalues not converged
     c_bands:  1 eigenvalues not converged
     c_bands:  2 eigenvalues not converged
     c_bands:  1 eigenvalues not converged
     ethr =  1.00E-02,  avg # of iterations =  9.7

     total cpu time spent up to now is       94.5 secs

     total energy              =   -1054.41606748 Ry
     Harris-Foulkes estimate   =   -1072.28509156 Ry
     estimated scf accuracy    <      38.27780795 Ry

     iteration #  4     ecut=    40.00 Ry     beta=0.70
     CG style diagonalization
     ethr =  1.00E-02,  avg # of iterations =  3.8

     total cpu time spent up to now is      105.1 secs

     total energy              =   -1058.68527973 Ry
     Harris-Foulkes estimate   =   -1059.58142452 Ry
     estimated scf accuracy    <       1.67497021 Ry

     iteration #  5     ecut=    40.00 Ry     beta=0.70
     CG style diagonalization
     ethr =  1.40E-03,  avg # of iterations =  4.5

     total cpu time spent up to now is      118.1 secs

     total energy              =   -1059.37024500 Ry
     Harris-Foulkes estimate   =   -1059.44521779 Ry
     estimated scf accuracy    <       0.12699277 Ry

     iteration #  6     ecut=    40.00 Ry     beta=0.70
     CG style diagonalization
     c_bands:  1 eigenvalues not converged
     c_bands:  1 eigenvalues not converged
     c_bands:  1 eigenvalues not converged
     c_bands:  1 eigenvalues not converged
     c_bands:  1 eigenvalues not converged
     c_bands:  1 eigenvalues not converged
     c_bands:  2 eigenvalues not converged
     ethr =  1.06E-04,  avg # of iterations =  4.7

     total cpu time spent up to now is      131.7 secs

     total energy              =   -1059.42915602 Ry
     Harris-Foulkes estimate   =   -1059.43140784 Ry
     estimated scf accuracy    <       0.00690659 Ry

     iteration #  7     ecut=    40.00 Ry     beta=0.70
     CG style diagonalization
     c_bands:  3 eigenvalues not converged
     c_bands:  1 eigenvalues not converged
     c_bands:  1 eigenvalues not converged
     c_bands:  1 eigenvalues not converged
     c_bands:  1 eigenvalues not converged
     c_bands:  1 eigenvalues not converged
     c_bands:  1 eigenvalues not converged
     c_bands:  1 eigenvalues not converged
     c_bands:  1 eigenvalues not converged
     c_bands:  1 eigenvalues not converged
     c_bands:  1 eigenvalues not converged
     c_bands:  2 eigenvalues not converged
     ethr =  5.76E-06,  avg # of iterations =  4.8

     total cpu time spent up to now is      145.4 secs

     total energy              =   -1059.43023210 Ry
     Harris-Foulkes estimate   =   -1059.43147633 Ry
     estimated scf accuracy    <       0.00208226 Ry

     iteration #  8     ecut=    40.00 Ry     beta=0.70
     CG style diagonalization
     c_bands:  1 eigenvalues not converged
     c_bands:  1 eigenvalues not converged
     c_bands:  1 eigenvalues not converged
     c_bands:  1 eigenvalues not converged
     c_bands:  1 eigenvalues not converged
     c_bands:  1 eigenvalues not converged
     c_bands:  1 eigenvalues not converged
     ethr =  1.74E-06,  avg # of iterations =  3.8

     total cpu time spent up to now is      156.3 secs

     total energy              =   -1059.43092265 Ry
     Harris-Foulkes estimate   =   -1059.43099654 Ry
     estimated scf accuracy    <       0.00016083 Ry

     iteration #  9     ecut=    40.00 Ry     beta=0.70
     CG style diagonalization
     c_bands:  1 eigenvalues not converged
     ethr =  1.34E-07,  avg # of iterations =  4.0

     total cpu time spent up to now is      168.1 secs

     End of self-consistent calculation

          k = 0.0000 0.0000 0.0000 (  2601 PWs)   bands (ev):

   -27.9918 -27.9792  -7.9708  -6.7211  -6.7211  -4.4015  -4.4015  -4.4015
     0.3435   0.3435   0.3435   0.4024   0.4024   0.4024   9.3680   9.3680
    10.6164  13.1707  13.1707  13.1707  15.3072  15.3072  15.3072  16.7209
    16.7209  16.7209  16.9568  16.9568  16.9568  21.2449  21.2449  21.2449
    32.7746  32.7746  33.3662  33.3662  33.3662  33.6768  34.9492  35.2151
    35.2151  35.2151  35.3512  35.3512  35.5681  35.5681  35.5681  35.7107
    37.6548  37.6548  37.6548  38.0050  38.0050  39.2375  42.1664  42.1664
    42.1664  42.5354  42.5354  43.8875  43.8875  43.8875  44.5754  44.5754
    44.5754  48.1213  48.1214  48.5581  48.5582  48.5582  48.7005  49.6051

          k = 0.0000 0.0000 0.1429 (  2657 PWs)   bands (ev):

   -28.0017 -27.9802  -7.9225  -6.8129  -6.6424  -4.5511  -4.3904  -4.3904
     0.3086   0.3086   0.3638   0.3876   0.3876   0.4409   9.4267   9.5811
    10.7689  13.1017  13.1017  13.3421  15.3705  15.3941  15.3941  16.3887
    16.8258  16.8258  16.8530  16.9161  16.9161  20.3842  21.2275  21.2275
    32.2650  33.0211  33.1081  33.5845  33.5845  34.1020  34.4563  34.4563
    34.7605  35.0586  35.1676  35.4531  35.4540  35.4540  36.1321  37.0168
    37.1372  37.8873  38.2237  38.2237  38.2912  39.8565  41.6783  41.6783
    41.8356  42.0706  42.2465  44.0595  44.0595  44.7870  45.1970  45.1970
    45.5399  46.9639  47.1070  47.6105  47.6106  48.8013  49.2481  49.2484

          k = 0.0000 0.0000 0.2857 (  2677 PWs)   bands (ev):

   -27.9994 -27.9849  -7.7865  -7.0430  -6.4010  -4.9533  -4.3648  -4.3648
     0.2620   0.2620   0.3706   0.3706   0.4599   0.5190   9.5727   9.7478
    11.7434  12.9699  12.9699  13.7431  15.5718  15.5848  15.5848  15.5898
    16.5930  16.8321  16.8321  17.0785  17.0785  18.3582  21.1884  21.1884
    31.4634  33.1611  33.1611  33.3058  33.3289  34.0032  34.2280  34.2280
    34.6617  35.0467  35.2366  35.3076  35.3076  35.6336  36.0552  37.3024
    37.6482  38.6135  38.9291  38.9291  39.6987  40.9285  40.9285  41.4208
    41.6215  41.9018  42.2750  44.1344  44.1344  44.5176  45.2668  45.2668
    45.5763  45.8619  47.3316  48.0382  48.0382  49.2118  49.2119  49.8961

          k = 0.0000 0.0000 0.4286 (  2658 PWs)   bands (ev):

   -27.9916 -27.9875  -7.5805  -7.3213  -5.9994  -5.4832  -4.3437  -4.3437
     0.2214   0.2214   0.3698   0.3698   0.5616   0.5914   9.7001   9.7481
    12.8772  12.8772  13.4752  14.3354  14.7071  15.7265  15.7265  15.8789
    16.0214  16.2422  16.7553  16.7553  17.3062  17.3062  21.1603  21.1603
    31.4996  32.3315  32.3503  32.3503  33.8205  34.0235  34.7288  34.8809
    34.8919  34.8919  34.8967  34.9911  35.2194  35.2194  37.0736  37.4590
    38.8132  38.8132  38.8289  39.6622  40.4551  40.6177  40.7842  40.7842
    41.5307  42.6826  43.7452  43.8293  43.8293  44.8794  45.1040  45.4749
    45.5301  45.5301  46.6564  47.7386  47.7387  49.4501  50.2973  50.2975

          k = 0.0000 0.1667 0.0000 (  2653 PWs)   bands (ev):

   -28.0006 -27.9804  -7.9054  -6.8439  -6.6137  -4.6031  -4.3867  -4.3867
     0.3045   0.3045   0.3800   0.3844   0.3844   0.4541   9.4477   9.6304
    10.8572  13.0817  13.0817  13.3998  15.3955  15.4237  15.4237  16.2773
    16.8195  16.8609  16.8609  16.9052  16.9052  20.1037  21.2229  21.2229
    32.0886  33.0507  33.1769  33.6570  33.6570  34.2438  34.2499  34.2499
    34.7306  34.9871  35.1523  35.4315  35.4319  35.4319  36.2960  36.8326
    37.5369  37.8617  38.3378  38.3633  38.3633  40.1345  41.5564  41.5564
    41.7446  42.0302  42.1713  44.0862  44.0862  44.8194  45.2788  45.2788
    45.9127  46.7617  46.8368  47.6615  47.6615  48.9152  49.0143  49.0144

          k = 0.0000 0.1667 0.1429 (  2662 PWs)   bands (ev):

   -28.0011 -27.9812  -7.8557  -6.8333  -6.6336  -4.6310  -4.5140  -4.3753
     0.2959   0.3211   0.3603   0.3649   0.3955   0.5092   9.5646   9.8873
    10.9117  13.0430  13.2553  13.3572  15.2276  15.3713  15.7264  16.4421
    16.5825  16.5944  16.8492  16.9361  17.0476  20.0806  20.3754  21.2061
    32.2791  32.6586  33.2477  33.4523  33.6546  33.8228  34.2026  34.3804
    34.5650  34.8529  35.0414  35.1294  35.2286  36.6579  36.6849  37.0941
    37.7961  37.8691  38.0006  38.8273  38.8857  40.3313  41.2590  41.5142
    41.6155  41.6428  42.3304  44.2568  44.4869  45.0562  45.1541  45.5844
    45.8014  46.0492  46.4759  47.7861  48.5126  48.5474  49.0020  49.2139

          k = 0.0000 0.1667 0.2857 (  2666 PWs)   bands (ev):

   -27.9969 -27.9847  -7.7184  -6.9937  -6.4505  -4.9886  -4.5700  -4.3498
     0.2651   0.2968   0.3359   0.3538   0.4937   0.6091   9.6762  10.2513
    11.6954  12.9603  13.2411  13.6818  15.1774  15.2354  15.9277  16.0314
    16.4179  16.7265  16.7671  17.0682  17.1681  18.3744  20.0683  21.1701
    31.7216  32.6874  32.9946  33.0439  33.5089  33.6499  33.9014  34.2853
    34.3796  34.7211  34.8615  35.6336  35.7192  36.3904  37.1068  37.6865
    37.7114  38.4581  39.3192  39.4475  39.9069  40.7570  40.9240  41.2611
    41.3460  42.2047  42.6831  43.8927  44.0354  44.2683  44.6560  45.2400
    45.4676  46.9313  47.2322  48.1558  48.7553  48.9917  49.0536  50.2430

          k = 0.0000 0.1667 0.4286 (  2658 PWs)   bands (ev):

   -27.9917 -27.9868  -7.5209  -7.2464  -6.0536  -5.5299  -4.5687  -4.3289
     0.2232   0.2575   0.3329   0.3689   0.5948   0.6839   9.7481  10.3256
    12.8986  12.9949  13.5729  14.1846  14.6696  15.3771  15.6617  15.7648
    16.0923  16.5140  16.6342  17.0464  17.1205  17.3515  20.0402  21.1444
    31.5141  32.0821  32.2653  32.8031  33.5904  33.9505  34.0910  34.2573
    34.3655  34.5341  34.8606  35.2715  36.1451  36.8207  37.0452  37.6469
    38.6782  39.2937  39.3582  39.6665  40.5961  40.6244  40.9720  41.2183
    41.9010  42.5959  42.9786  43.1874  43.7540  44.3017  44.6729  45.3766
    45.9585  47.0652  47.0758  47.6331  48.3685  48.7291  49.9389  50.3390

          k = 0.0000 0.3333 0.0000 (  2677 PWs)   bands (ev):

   -27.9979 -27.9858  -7.7249  -7.1345  -6.2838  -5.1232  -4.3562  -4.3562
     0.2438   0.2438   0.3673   0.3673   0.4954   0.5541   9.6223   9.7542
    12.2692  12.9304  12.9304  13.9068  15.2887  15.6435  15.6435  15.6645
    16.4832  16.8020  16.8020  17.1682  17.1682  17.5860  21.1741  21.1741
    31.3764  32.8174  32.8174  33.0810  33.4822  33.9157  34.4726  34.4726
    34.6699  34.9944  35.1253  35.2633  35.2633  35.4864  36.3854  37.5831
    37.7774  38.8475  39.0027  39.0027  40.3570  40.7711  40.7711  41.3219
    41.3995  42.0462  43.3225  44.0670  44.0670  44.1338  45.2257  45.3199
    45.3199  45.5604  47.4313  47.8415  47.8416  50.0107  50.0107  50.3479

          k = 0.0000 0.3333 0.1429 (  2660 PWs)   bands (ev):

   -27.9949 -27.9851  -7.6744  -7.0907  -6.3258  -5.1512  -4.5165  -4.3450
     0.2497   0.2758   0.3432   0.3589   0.5251   0.6211   9.6963  10.1380
    12.2024  12.9338  13.1597  13.8560  15.0793  15.3155  15.8651  15.9213
    16.3940  16.7152  16.8996  17.0286  17.2189  17.6467  20.3330  21.1650
    31.5576  32.4765  32.7469  33.1469  33.4662  33.7686  34.0540  34.3926
    34.4700  34.5286  34.8527  35.5809  35.7336  36.4284  36.7478  37.6839
    38.0226  38.8707  39.2436  39.3282  40.5426  40.6895  40.8394  41.2496
    41.4148  42.3936  43.1779  43.7346  43.7747  44.3245  44.3399  45.1173
    45.3461  46.6973  47.6103  47.9305  48.6381  49.2694  49.4688  50.4057

          k = 0.0000 0.3333 0.2857 (  2658 PWs)   bands (ev):

   -27.9934 -27.9850  -7.5535  -7.0026  -6.3517  -5.2685  -4.8805  -4.3194
     0.2498   0.2834   0.2944   0.3859   0.6007   0.7486   9.7667  11.2813
    12.2213  12.9393  13.5697  13.7274  14.8672  15.1385  15.6400  15.9733
    16.5117  16.5412  16.7755  17.2124  17.3650  17.6148  18.4185  21.1338
    31.6824  32.2265  32.4203  32.4613  33.2384  33.5181  33.9454  34.0000
    34.3815  34.5731  35.1627  36.0492  36.6824  36.8742  37.3222  37.6741
    38.6162  39.0991  39.1885  40.1173  40.7091  40.9400  40.9554  41.3036
    41.3782  42.4664  42.6506  42.8642  44.1895  44.4733  44.9815  45.2716
    46.1442  47.3896  47.7743  48.1672  48.6238  48.6948  48.9575  49.5890

          k = 0.0000 0.3333 0.4286 (  2654 PWs)   bands (ev):

   -27.9894 -27.9866  -7.4371  -7.0015  -6.1196  -5.6579  -5.0709  -4.2985
     0.2245   0.2573   0.2786   0.4196   0.6941   0.8449   9.8361  11.9312
    12.9421  13.1497  13.7940  13.8501  14.7787  15.1408  15.3428  15.5576
    15.9841  16.4301  16.7439  17.0822  17.2969  17.4869  17.6832  21.1062
    31.3676  31.7822  31.8535  32.6591  32.9963  33.2738  34.3536  34.3700
    34.5254  34.7264  35.2287  36.3373  36.5337  36.9744  37.3748  38.1784
    38.2870  39.1468  39.4069  39.7667  40.6904  41.1992  41.3557  41.7495
    41.8571  42.3661  42.5854  43.8861  44.4190  44.5149  45.5413  45.9945
    46.4023  47.2343  47.8742  47.8908  48.3036  48.4291  49.1415  49.3570

          k = 0.0000-0.5000 0.0000 (  2666 PWs)   bands (ev):

   -27.9901 -27.9901  -7.4562  -7.4562  -5.7508  -5.7508  -4.3406  -4.3406
     0.2133   0.2133   0.3685   0.3685   0.5873   0.5873   9.7314   9.7314
    12.8648  12.8648  14.2293  14.2293  14.9757  14.9757  15.7465  15.7465
    16.0570  16.0570  16.7422  16.7422  17.3398  17.3398  21.1557  21.1557
    31.8333  31.8333  32.2395  32.2395  34.0141  34.0141  34.7992  34.7992
    34.8215  34.8215  34.9946  34.9946  35.2320  35.2320  37.3255  37.3255
    38.6958  38.6958  39.6566  39.6566  40.2928  40.2928  40.8405  40.8405
    41.9759  41.9759  43.7362  43.7362  44.9037  44.9037  44.9798  44.9798
    45.5987  45.5987  47.7161  47.7162  47.7701  47.7701  50.2091  50.2097

          k = 0.0000-0.5000 0.1429 (  2666 PWs)   bands (ev):

   -27.9899 -27.9899  -7.4465  -7.3646  -5.7901  -5.7888  -4.5106  -4.3295
     0.2151   0.2408   0.3408   0.3642   0.6026   0.6694   9.7513  10.1769
    12.8833  13.0023  14.2049  14.2430  14.7884  14.9537  15.4740  15.7764
    15.8665  16.4505  16.6494  16.9827  17.1867  17.3697  20.3104  21.1427
    31.5390  32.0075  32.1809  32.5971  33.7814  34.1364  34.2030  34.3169
    34.4057  34.4774  34.9222  35.0414  36.0325  36.5003  37.1941  37.5792
    38.6496  39.3630  39.7514  39.7542  40.0248  40.8136  40.9804  41.2301
    41.8815  42.6204  42.8109  43.0362  44.0987  44.4273  44.5015  45.7319
    46.5291  46.8133  47.0267  47.3978  47.9611  48.2446  50.2488  50.5189

          k = 0.0000-0.5000 0.2857 (  2658 PWs)   bands (ev):

   -27.9885 -27.9885  -7.4241  -7.1148  -5.8770  -5.8729  -4.9300  -4.3040
     0.2154   0.2745   0.2759   0.4069   0.6763   0.8156   9.8172  11.4133
    12.9271  13.2735  13.9785  14.2596  14.7324  14.9497  15.2267  15.3764
    15.9006  16.4662  16.8162  16.9760  17.2518  17.4643  18.3729  21.1126
    31.3328  31.9156  31.9867  32.8161  33.0063  33.1682  34.3100  34.3191
    34.5384  34.7900  34.9242  35.8650  36.7952  37.1652  37.2000  38.1799
    38.1920  39.4949  39.8793  40.1017  40.4603  40.8169  41.0287  41.0426
    41.9764  42.0021  43.2264  44.3348  44.4268  44.4389  44.4763  46.0363
    46.6672  46.6703  47.7428  47.9348  48.1284  48.6363  48.8332  49.8757

          k = 0.0000-0.5000 0.4286 (  2662 PWs)   bands (ev):

   -27.9883 -27.9883  -7.4053  -6.8270  -5.9454  -5.9434  -5.3429  -4.2831
     0.2196   0.2272   0.2675   0.4482   0.7573   0.9156   9.8980  12.9669
    13.0889  13.4224  13.8208  14.2594  14.7586  15.0448  15.1100  15.1282
    15.4671  16.3569  16.4437  16.5902  17.3304  17.3663  17.5678  21.0855
    31.1994  31.2898  31.4719  32.8021  33.1453  33.1823  34.3221  34.8375
    34.8591  34.9424  35.9345  36.0376  36.3500  37.0406  37.7770  37.8094
    37.8328  38.7804  38.8972  39.3759  40.0701  41.9838  42.2061  42.3384
    42.4010  42.8552  43.7746  43.8141  44.7961  45.2521  45.4952  45.5317
    46.5572  47.3145  47.6646  48.1208  48.2235  48.3177  48.5515  49.0036

          k = 0.2000 0.0000 0.0000 (  2661 PWs)   bands (ev):

   -28.0016 -27.9807  -7.8776  -6.8932  -6.5658  -4.6873  -4.3809  -4.3809
     0.2928   0.2928   0.3799   0.3799   0.3965   0.4747   9.4803   9.6854
    11.0308  13.0505  13.0505  13.4865  15.4365  15.4679  15.4679  16.1015
    16.7653  16.8851  16.8851  16.9187  16.9187  19.6613  21.2127  21.2127
    31.8629  33.1101  33.2580  33.7387  33.7387  33.9911  33.9911  34.3525
    34.6977  34.9955  35.1269  35.3908  35.3983  35.3983  36.5483  36.5665
    37.7720  38.1718  38.3970  38.5515  38.5515  40.6070  41.3786  41.3786
    41.6471  41.9549  42.0669  44.1178  44.1178  44.8193  45.3113  45.3113
    46.4096  46.4555  46.4900  47.9008  47.9008  48.7100  48.7101  49.1302

          k = 0.2000 0.0000 0.1429 (  2667 PWs)   bands (ev):

   -27.9998 -27.9831  -7.8274  -6.8706  -6.5960  -4.7099  -4.5200  -4.3696
     0.2894   0.3174   0.3526   0.3565   0.4188   0.5290   9.5933   9.9788
    11.0486  13.0208  13.2356  13.4405  15.2273  15.3524  15.7947  16.3039
    16.5336  16.6541  16.8246  16.9765  17.0623  19.6473  20.3638  21.1980
    32.0710  32.7553  33.2610  33.5108  33.6211  33.6244  34.0055  34.3693
    34.7085  34.7492  35.0490  35.0560  35.3307  36.6344  36.9024  37.0028
    37.8228  38.0117  38.3934  38.9564  39.0623  40.6608  41.1854  41.3374
    41.5290  41.5784  42.4139  44.2251  44.3775  44.9165  45.0994  45.4286
    45.8997  46.1678  46.5932  48.0966  48.3971  48.4283  49.3160  49.4383

          k = 0.2000 0.0000 0.2857 (  2659 PWs)   bands (ev):

   -27.9956 -27.9845  -7.6907  -6.9801  -6.4586  -5.0095  -4.6473  -4.3440
     0.2670   0.3046   0.3225   0.3588   0.5091   0.6380   9.6941  10.4796
    11.7014  12.9566  13.3369  13.6579  15.1114  15.1949  15.9085  16.0916
    16.4597  16.6697  16.6904  17.1048  17.2087  18.3702  19.6431  21.1642
    31.7837  32.5733  32.8476  32.9846  33.5225  33.6943  33.7232  34.1807
    34.2353  34.8009  34.8822  35.6794  35.9115  36.5722  37.4358  37.6685
    37.8527  38.3590  39.5281  39.6323  39.9989  40.6659  40.9508  41.2274
    41.2360  42.2344  42.8640  43.6676  44.0743  44.1553  44.5389  45.4348
    45.5854  47.0766  47.1892  48.3211  48.5632  49.0263  49.1239  50.2406

          k = 0.2000 0.0000 0.4286 (  2660 PWs)   bands (ev):

   -27.9916 -27.9869  -7.5016  -7.2099  -6.0722  -5.5490  -4.6584  -4.3232
     0.2238   0.2649   0.3187   0.3742   0.6092   0.7167   9.7615  10.5787
    12.9063  13.0316  13.6141  14.1190  14.6738  15.3136  15.6406  15.6737
    16.0996  16.5904  16.6338  17.0504  17.1150  17.3726  19.6122  21.1375
    31.4926  32.1065  32.2191  32.8093  33.4136  33.7044  34.1109  34.1842
    34.3306  34.6553  34.8142  35.4438  36.4097  36.9225  37.2790  37.6486
    38.6093  39.3800  39.5503  39.7359  40.4192  40.7179  41.0843  41.3572
    41.5955  42.6945  42.7497  43.4206  43.8371  44.2914  44.6509  45.2938
    46.1266  47.0733  47.5055  47.6757  48.4217  48.5845  49.4571  50.4404

          k = 0.2000 0.1667 0.0000 (  2672 PWs)   bands (ev):

   -27.9993 -27.9845  -7.8100  -6.8723  -6.5947  -4.7265  -4.5593  -4.3659
     0.2889   0.3213   0.3459   0.3469   0.4262   0.5471   9.6113  10.0846
    11.0772  13.0114  13.2921  13.4286  15.2084  15.3207  15.8450  16.3519
    16.4937  16.5785  16.8017  16.9979  17.0879  19.6376  20.0924  21.1918
    32.1064  32.6223  33.2369  33.5602  33.5746  33.5836  33.9890  34.2331
    34.6057  34.8307  35.0341  35.0343  35.3868  36.8587  37.0259  37.0954
    37.7728  37.9852  38.4649  39.1517  39.1864  40.6943  41.1733  41.3190
    41.4610  41.4719  42.5529  44.1925  44.3437  44.7117  45.1753  45.4943
    45.9785  46.0361  46.6018  48.2738  48.4229  48.4943  49.1987  49.5251

          k = 0.2000 0.1667 0.1429 (  2665 PWs)   bands (ev):

   -27.9983 -27.9835  -7.7560  -6.8022  -6.6700  -4.7268  -4.6107  -4.4842
     0.2709   0.3214   0.3283   0.4392   0.4715   0.5265   9.9867  10.1530
    11.0517  13.2085  13.2871  13.4098  14.8295  15.7142  15.8089  16.2015
    16.4902  16.6476  16.7693  16.9804  17.0554  19.6312  20.0748  20.3508
    32.3461  32.7228  32.9590  33.2595  33.3698  33.5099  33.9361  33.9888
    34.4219  34.6717  34.8727  35.0736  36.3681  36.8789  37.3322  37.5053
    38.0234  38.5683  38.7393  38.8917  39.0387  40.7536  41.0538  41.1897
    41.4797  42.2516  42.5974  44.0014  44.1330  44.5460  44.5863  45.5358
    45.7136  46.9651  47.1688  47.7923  47.9841  48.0363  48.7085  49.7990

          k = 0.2000 0.1667 0.2857 (  2655 PWs)   bands (ev):

   -27.9950 -27.9830  -7.6102  -6.8978  -6.5408  -5.0243  -4.6962  -4.5457
     0.2509   0.3262   0.3493   0.4622   0.5402   0.6138  10.2546  10.5493
    11.6216  13.2508  13.3676  13.6521  14.5346  15.6969  15.7794  15.9651
    16.3827  16.6929  16.8626  16.9922  17.1386  18.3838  19.6255  20.0490
    32.1091  32.4379  32.8268  32.9649  33.1902  33.3605  33.8699  33.9458
    34.0344  34.5053  34.8587  35.6830  36.5391  37.2057  37.4584  38.2477
    38.3851  38.8108  39.2644  39.6675  40.1119  40.7398  41.0619  41.1824
    42.2594  42.2777  42.9958  43.3288  43.6608  44.1250  44.3901  44.7419
    46.0994  46.8066  47.3369  47.4954  48.0237  48.4394  48.6915  49.9766

          k = 0.2000 0.1667 0.4286 (  2655 PWs)   bands (ev):

   -27.9900 -27.9864  -7.4037  -7.1519  -6.1300  -5.5882  -4.6762  -4.5704
     0.2474   0.2864   0.3834   0.4215   0.6528   0.6932  10.3539  10.6039
    12.9607  13.1961  13.6842  14.0981  14.3203  15.3543  15.4713  15.8788
    16.0874  16.2859  16.9491  17.0154  17.1419  17.2152  19.5984  20.0193
    31.7448  31.8279  32.6242  32.9356  33.2473  33.3864  33.7902  33.9987
    34.1689  34.5790  34.9252  35.3378  36.9350  37.2349  37.4631  38.0708
    39.1583  39.3970  39.8243  40.2874  40.3664  40.8131  41.4474  41.8063
    42.0394  42.3114  42.7650  43.2036  43.5599  43.8670  44.3112  45.1574
    45.8851  47.0171  47.1818  47.9006  47.9228  48.3925  48.5536  49.3992

          k = 0.2000 0.3333 0.0000 (  2656 PWs)   bands (ev):

   -27.9945 -27.9844  -7.6310  -7.0541  -6.3510  -5.1809  -4.6537  -4.3355
     0.2498   0.2906   0.3209   0.3661   0.5475   0.6723   9.7221  10.5335
    12.1795  12.9359  13.3232  13.8083  14.9817  15.2233  15.8400  15.9519
    16.5198  16.6478  16.7265  17.1208  17.2684  17.6555  19.6308  21.1529
    31.6574  32.3497  32.6668  32.9213  33.4542  33.7083  33.8261  34.1071
    34.2971  34.7569  34.8169  35.8239  36.1073  36.4866  37.3925  37.6712
    38.2418  38.7506  39.3945  39.6789  40.4561  40.8174  40.9761  41.1397
    41.2505  42.6950  43.0160  43.3084  44.0539  44.2023  44.2361  45.2179
    45.5126  47.3394  47.5983  48.0396  48.8214  48.8700  49.0736  50.1623

          k = 0.2000 0.3333 0.1429 (  2657 PWs)   bands (ev):

   -27.9939 -27.9841  -7.5680  -6.9994  -6.4061  -5.1986  -4.6758  -4.5048
     0.2471   0.3056   0.3550   0.4285   0.5725   0.6523  10.1519  10.5661
    12.1074  13.1714  13.3598  13.8036  14.5431  15.5887  15.6661  16.0057
    16.3150  16.7191  16.9318  16.9836  17.1676  17.6992  19.6186  20.3105
    31.9074  32.1918  32.7018  32.9769  33.3610  33.5400  33.7674  33.8936
    34.0760  34.4620  35.0601  35.5895  36.6413  36.9001  37.4500  38.1509
    38.6056  38.9862  39.3666  39.8345  40.3511  40.8721  41.1090  41.3382
    41.8579  42.8621  42.9424  43.0790  43.7179  44.0433  44.3212  44.4145
    46.2046  47.0714  47.3007  47.3692  48.3659  48.7169  48.8312  49.7331

          k = 0.2000 0.3333 0.2857 (  2656 PWs)   bands (ev):

   -27.9916 -27.9844  -7.4124  -6.8775  -6.4727  -5.2786  -4.9618  -4.6664
     0.2557   0.3561   0.3922   0.5066   0.6107   0.6965  10.6033  11.3580
    12.0841  13.4132  13.5921  13.7842  14.1730  15.4087  15.7025  15.9397
    16.3967  16.4879  16.8454  17.0565  17.2174  17.6834  18.3910  19.5917
    32.0402  32.2073  32.4066  32.8227  33.1122  33.4650  33.7057  33.8066
    33.9191  34.2357  34.9629  36.2415  36.8083  37.3150  37.7975  38.4107
    39.0408  39.5232  39.8492  40.3415  40.5614  41.0070  41.2942  41.7945
    42.4026  42.5974  42.6774  43.0598  43.5017  43.9908  44.4553  44.9469
    46.0415  46.5019  46.6977  47.2706  47.4821  48.1238  48.5062  49.4151

          k = 0.2000 0.3333 0.4286 (  2643 PWs)   bands (ev):

   -27.9868 -27.9853  -7.2457  -6.9188  -6.2104  -5.6935  -5.1492  -4.6945
     0.2924   0.3489   0.4334   0.4807   0.6929   0.7878  10.6747  11.9610
    13.0232  13.4604  13.7225  13.7997  14.3816  15.2377  15.4563  15.6933
    16.0223  16.2670  16.7004  17.0441  17.1034  17.2783  17.6791  19.5651
    31.7283  31.8763  32.5257  32.7785  33.0341  33.2832  33.6068  33.8789
    34.1323  34.5591  35.2522  36.1214  36.8933  37.2530  37.7928  38.1619
    39.3016  39.9798  40.2061  40.5983  40.7710  41.5512  41.6787  41.9819
    42.1286  42.3836  42.5048  43.2498  43.9042  44.1463  45.0778  45.6620
    46.1667  46.3192  46.6915  47.0796  47.1888  47.8693  48.7162  49.1372

          k = 0.2000-0.5000 0.0000 (  2658 PWs)   bands (ev):

   -27.9889 -27.9888  -7.4384  -7.2803  -5.8226  -5.8202  -4.6591  -4.3201
     0.2174   0.2613   0.3189   0.3786   0.6233   0.7259   9.7724  10.5884
    12.8990  13.1100  14.1439  14.2512  14.7240  14.9436  15.3611  15.6085
    15.9088  16.5760  16.6663  17.0559  17.1097  17.4019  19.6091  21.1333
    31.4399  32.1075  32.1109  32.7002  33.4055  33.7053  34.1894  34.3242
    34.3383  34.5502  34.8566  35.2917  36.4986  37.0516  37.2513  37.6472
    38.4861  39.5948  39.7533  39.9856  40.4034  40.5818  41.0161  41.2835
    41.5344  42.4791  43.2473  43.3018  43.7229  44.3891  44.4324  45.9898
    46.6885  46.7229  47.4333  47.5997  47.9259  48.2803  49.6557  50.4076

          k = 0.2000-0.5000 0.1429 (  2658 PWs)   bands (ev):

   -27.9886 -27.9885  -7.3399  -7.2631  -5.8588  -5.8576  -4.6686  -4.5106
     0.2508   0.2563   0.3856   0.3976   0.6604   0.7075  10.2122  10.6016
    13.0627  13.1491  14.1189  14.1998  14.6819  14.7146  15.4800  15.5009
    16.0942  16.2684  16.9255  17.0503  17.1131  17.2627  19.5981  20.2892
    31.6170  31.7716  32.6988  32.8010  33.1396  33.5032  33.8883  34.0601
    34.3421  34.6063  34.7758  35.3441  36.7267  37.2312  37.5535  37.8565
    39.1022  39.4401  40.0969  40.3798  40.5117  40.6821  41.3213  41.4179
    42.0589  42.1190  43.0031  43.0269  43.7845  43.8207  44.5164  45.4224
    46.3619  46.4909  47.6563  47.7593  47.9774  48.0043  49.0909  49.3179

          k = 0.2000-0.5000 0.2857 (  2648 PWs)   bands (ev):

   -27.9868 -27.9867  -7.2230  -7.0655  -5.9406  -5.9383  -4.9810  -4.6908
     0.2979   0.3110   0.4467   0.4520   0.6935   0.7636  10.6590  11.4357
    13.2600  13.3320  13.8715  14.1000  14.6886  14.6995  15.3608  15.4572
    16.0769  16.2285  16.7997  17.0368  17.1022  17.2495  18.3552  19.5704
    31.7400  31.8102  32.5851  32.9997  33.0407  33.0613  33.6345  33.9317
    34.1417  34.7376  35.0084  35.5618  37.1230  37.6091  37.7566  38.0965
    39.2649  40.1065  40.3297  40.4443  40.9068  41.2014  41.3690  41.4977
    42.1315  42.3611  43.0601  43.2201  43.4883  44.4356  44.8468  45.5764
    45.9223  46.0036  46.8816  46.9069  48.0717  48.4031  48.5214  48.7205

          k = 0.2000-0.5000 0.4286 (  2646 PWs)   bands (ev):

   -27.9858 -27.9858  -7.1888  -6.7255  -6.0064  -6.0043  -5.4644  -4.7093
     0.3425   0.3600   0.4116   0.4789   0.7462   0.8594  10.7307  13.0439
    13.3383  13.4620  13.6320  14.1972  14.7301  14.9636  15.1537  15.3608
    15.6078  16.2113  16.4549  16.5557  17.1122  17.1176  17.3325  19.5445
    31.6617  31.7198  32.1170  32.8423  33.1149  33.3645  33.4842  34.1242
    34.1316  35.1671  35.8343  36.3222  36.4407  37.1422  37.2731  37.7475
    39.3152  40.0051  40.1158  40.6241  41.2407  41.5585  41.8852  41.8944
    42.3820  42.4092  42.8899  43.6696  44.7030  45.1000  45.4393  45.6736
    45.9428  46.3500  46.3808  47.2709  47.5623  48.2147  48.3056  49.0830

          k = 0.4000 0.0000 0.0000 (  2657 PWs)   bands (ev):

   -27.9940 -27.9850  -7.6266  -7.2655  -6.0912  -5.3741  -4.3466  -4.3466
     0.2262   0.2262   0.3697   0.3697   0.5453   0.5880   9.6807   9.7518
    12.8896  12.8896  13.1086  14.1836  14.8805  15.7078  15.7078  15.8117
    16.3168  16.4837  16.7673  16.7673  17.2735  17.2735  21.1644  21.1644
    31.4221  32.4551  32.4551  32.5597  33.7192  33.9861  34.7072  34.7914
    34.7914  34.9165  34.9612  35.1213  35.2242  35.2242  36.9150  37.4982
    38.5062  38.8935  38.8935  39.3807  40.6537  40.7469  40.7500  40.7500
    41.4529  42.7060  43.5694  43.9010  43.9010  44.8886  44.9363  45.2219
    45.4693  45.4693  46.9386  47.7429  47.7429  50.0478  50.3557  50.3558

          k = 0.4000 0.0000 0.1429 (  2659 PWs)   bands (ev):

   -27.9931 -27.9860  -7.5783  -7.2152  -6.1332  -5.4071  -4.5130  -4.3354
     0.2289   0.2551   0.3423   0.3634   0.5728   0.6531   9.7303  10.1629
    12.8692  12.9027  13.2883  14.1024  14.7978  15.3934  15.7660  15.8619
    16.4164  16.4335  16.6752  17.0036  17.1616  17.3098  20.3188  21.1528
    31.5167  32.1542  32.3930  32.8986  33.6307  33.9887  34.1109  34.3864
    34.4089  34.4855  34.8713  35.2855  35.9019  36.5598  36.9416  37.6309
    38.6179  39.1401  39.1824  39.5106  40.6520  40.7650  40.8427  41.0637
    42.1011  42.2457  43.2639  43.3350  43.8081  44.3184  44.8107  44.8174
    45.7193  46.7236  47.2240  47.7675  48.3724  49.1910  50.1146  50.3045

          k = 0.4000 0.0000 0.2857 (  2657 PWs)   bands (ev):

   -27.9916 -27.9859  -7.4827  -7.0591  -6.1957  -5.5045  -4.9154  -4.3099
     0.2295   0.2780   0.2825   0.3988   0.6468   0.7917   9.7971  11.3798
    12.8868  12.9316  13.6138  13.8845  14.7607  15.1668  15.5004  15.7648
    16.2662  16.4937  16.8994  16.9358  17.2428  17.4239  18.3865  21.1206
    31.4891  32.0577  32.1100  32.5588  33.1871  33.3479  34.1442  34.2341
    34.3585  34.6658  35.0563  36.1614  36.6104  36.9746  37.2237  38.0837
    38.5462  39.2178  39.3981  39.9533  40.8479  40.9647  40.9932  41.4107
    41.5692  42.4306  42.5057  43.4241  44.3263  44.7611  44.9719  45.3569
    46.1811  47.2349  48.0194  48.0831  48.4921  48.5504  48.8599  49.6737

          k = 0.4000 0.0000 0.4286 (  2657 PWs)   bands (ev):

   -27.9891 -27.9869  -7.4170  -6.8974  -6.0917  -5.7491  -5.2415  -4.2890
     0.2240   0.2349   0.2743   0.4389   0.7325   0.8883   9.8729  12.6886
    12.9568  13.2070  13.7813  13.8659  14.8672  15.1047  15.2235  15.5108
    15.6981  16.3831  16.6091  16.8911  17.2377  17.3409  17.5374  21.0934
    31.2983  31.4516  31.6276  32.8387  32.8599  33.3070  34.3443  34.5782
    34.7855  34.8231  35.6286  36.0980  36.4532  37.2003  37.6346  37.7965
    38.1183  38.9233  39.0578  39.5380  40.4364  41.5560  41.9376  42.0983
    42.4011  42.4463  43.1907  43.9249  44.1412  44.6458  45.7849  46.3870
    46.6241  47.6828  47.7754  47.8818  48.1693  48.3680  48.5534  48.9174

          k = 0.4000 0.1667 0.0000 (  2659 PWs)   bands (ev):

   -27.9926 -27.9864  -7.5631  -7.1963  -6.1458  -5.4186  -4.5691  -4.3317
     0.2294   0.2629   0.3331   0.3665   0.5803   0.6741   9.7387  10.3180
    12.8682  12.9068  13.3408  14.0728  14.7816  15.3450  15.7751  15.8064
    16.4149  16.4915  16.6461  17.0540  17.1270  17.3236  20.0437  21.1486
    31.5295  32.1397  32.3674  32.9120  33.5409  33.9448  34.0019  34.2526
    34.3631  34.5672  34.8378  35.3852  36.0786  36.7845  36.9933  37.6525
    38.6315  39.1885  39.2680  39.5446  40.5628  40.8099  40.9408  41.1315
    41.9140  42.4099  43.1258  43.4096  43.7221  44.2826  44.7763  44.7926
    45.8294  47.0241  47.2387  47.8000  48.4508  49.0442  49.7646  50.3126

          k = 0.4000 0.1667 0.1429 (  2662 PWs)   bands (ev):

   -27.9921 -27.9866  -7.4998  -7.1490  -6.1910  -5.4468  -4.5806  -4.5051
     0.2369   0.2778   0.3609   0.4002   0.6181   0.6656  10.1707  10.3451
    12.7811  13.1184  13.4216  14.0433  14.5041  15.4461  15.5748  16.0524
    16.1846  16.3959  16.9247  16.9932  17.1645  17.2300  20.0317  20.3033
    31.7315  31.9093  32.5651  33.0297  33.4371  33.5924  33.8399  33.9832
    34.1812  34.7061  34.9152  35.2268  36.6843  36.9401  37.1779  37.9741
    39.0037  39.0988  39.7580  39.9456  40.1113  40.8636  41.4623  41.5865
    41.8908  42.3828  42.9180  43.2064  43.6476  44.0977  44.1971  44.7457
    46.0097  46.9638  47.1427  47.9153  48.1634  48.8488  49.1309  49.6609

          k = 0.4000 0.1667 0.2857 (  2650 PWs)   bands (ev):

   -27.9891 -27.9856  -7.3668  -6.9951  -6.2652  -5.5292  -4.9582  -4.5769
     0.2569   0.3176   0.3991   0.4528   0.6554   0.7528  10.3875  11.4050
    12.7723  13.3169  13.6420  13.8720  14.3104  15.3524  15.4816  15.9016
    16.2177  16.3311  16.8435  17.0564  17.1470  17.2974  18.3744  20.0052
    31.7551  31.9329  32.5233  32.7018  33.2326  33.3520  33.6897  33.9028
    34.1346  34.2666  35.2423  35.9996  36.9382  37.1594  37.9101  38.0243
    39.1218  39.6461  39.9859  40.3605  40.5579  41.0795  41.4716  41.8421
    42.1324  42.2178  42.5995  43.2910  43.8031  43.9386  44.8013  45.1778
    46.2874  46.6349  47.1702  47.3825  47.6057  47.9375  48.5194  49.3538

          k = 0.4000 0.1667 0.4286 (  2652 PWs)   bands (ev):

   -27.9874 -27.9863  -7.2719  -6.8316  -6.1571  -5.7720  -5.3177  -4.5856
     0.2866   0.3268   0.3899   0.4635   0.7249   0.8471  10.4579  12.7207
    13.0296  13.4360  13.6626  13.8022  14.6217  15.1576  15.4145  15.5609
    15.7679  16.2762  16.5810  16.8381  17.1537  17.1845  17.3902  19.9801
    31.5619  31.6599  32.1952  32.7326  33.1543  33.4017  33.4588  34.1442
    34.2198  34.9264  35.5622  36.4733  36.6788  37.0446  37.5905  37.7475
    39.3097  39.5408  39.6534  40.7425  40.8631  41.6460  41.8627  41.9136
    42.2611  42.2918  43.0281  43.4615  43.9077  44.5340  45.5497  46.0436
    46.5230  46.5742  46.8877  47.0708  47.5794  47.8239  48.2037  49.3235

          k = 0.4000 0.3333 0.0000 (  2652 PWs)   bands (ev):

   -27.9900 -27.9859  -7.4550  -6.9948  -6.1910  -5.5607  -5.0546  -4.3014
     0.2313   0.2580   0.2819   0.4152   0.6816   0.8332   9.8258  11.8984
    12.9132  12.9419  13.7026  13.8163  14.7865  15.1282  15.3925  15.7310
    16.1615  16.4436  16.8587  17.0433  17.2873  17.4704  17.7003  21.1099
    31.4400  31.8332  31.9397  32.5597  33.0137  33.3714  34.2960  34.3824
    34.3986  34.6627  35.2509  36.2540  36.6643  37.0822  37.2697  37.9878
    38.4661  39.0699  39.4116  39.8129  40.8336  41.0915  41.3915  41.7603
    41.7693  42.3483  42.4720  43.4050  44.4144  44.6393  45.4157  46.0161
    46.3771  47.3095  47.8334  47.9713  48.3746  48.5588  49.1480  49.1592

          k = 0.4000 0.3333 0.1429 (  2654 PWs)   bands (ev):

   -27.9893 -27.9859  -7.3600  -6.9467  -6.2460  -5.5748  -5.0978  -4.5104
     0.2548   0.3036   0.3815   0.4411   0.6791   0.8020  10.2605  11.9203
    12.7903  13.2867  13.6905  13.7842  14.4477  15.2849  15.4309  15.8209
    16.1569  16.3382  16.7964  17.0812  17.1829  17.3639  17.7028  20.2701
    31.6563  31.7686  32.4506  32.5635  33.1048  33.4415  33.6744  34.0405
    34.2105  34.4216  35.4386  36.3565  36.7697  37.1143  37.6496  37.9185
    39.2386  39.4378  39.6434  40.5990  40.6616  41.3190  41.6364  41.7539
    42.1143  42.1371  42.5114  43.3491  43.7104  44.2810  45.6196  45.6369
    46.3554  46.7442  46.9825  47.3838  47.5042  47.9370  48.8284  49.2055

          k = 0.4000 0.3333 0.2857 (  2651 PWs)   bands (ev):

   -27.9873 -27.9852  -7.1155  -6.7894  -6.3748  -5.6011  -5.2261  -5.0089
     0.3332   0.4286   0.4733   0.5754   0.6852   0.7247  11.4744  11.9908
    12.7763  13.5288  13.5752  13.9340  14.2572  15.2266  15.6740  15.9003
    16.0299  16.2875  16.6317  16.9449  17.0714  17.1248  17.6514  18.3304
    31.9738  32.2278  32.4892  32.6896  33.1885  33.3700  33.7150  33.7517
    34.1231  34.3353  34.6813  36.3208  36.9087  37.1297  37.9506  38.5188
    39.4909  40.0304  40.4062  40.7865  41.2706  41.6682  41.9429  41.9753
    42.5418  42.7816  42.8712  43.4907  43.6038  44.0951  44.2706  44.9542
    45.7213  46.2748  46.3269  46.7574  47.3230  47.7900  48.2956  49.2651

          k = 0.4000 0.3333 0.4286 (  2646 PWs)   bands (ev):

   -27.9853 -27.9847  -6.8793  -6.6353  -6.3118  -5.7908  -5.5180  -5.2681
     0.4244   0.4984   0.5261   0.6088   0.7032   0.7423  12.0631  12.8172
    13.0701  13.2973  13.5387  14.2321  14.6069  15.2784  15.5596  15.7027
    15.8454  16.1571  16.4467  16.6788  16.8328  16.8931  16.9423  17.5866
    32.1718  32.3520  32.5260  32.9255  33.1508  33.5368  33.6306  33.6964
    33.9279  34.3064  35.2594  36.4239  36.7233  36.7857  37.7156  38.3872
    39.5159  40.0845  40.2132  40.7443  41.1369  41.9107  42.2177  42.4807
    42.8033  43.0836  43.5419  43.7803  44.0908  44.2826  44.6595  44.9855
    45.6787  46.4995  46.7006  47.2220  47.5148  47.6469  48.0067  48.5543

          k = 0.4000-0.5000 0.0000 (  2650 PWs)   bands (ev):

   -27.9873 -27.9873  -7.4078  -6.8742  -5.9362  -5.9330  -5.2795  -4.2859
     0.2197   0.2345   0.2720   0.4453   0.7486   0.9053   9.8859  12.7666
    12.9612  13.4086  13.8031  14.2601  14.7894  15.0229  15.1243  15.1600
    15.6288  16.3710  16.5025  16.8319  17.2840  17.3542  17.5539  21.0900
    31.2199  31.3945  31.5431  32.8348  33.0770  33.1396  34.3259  34.7365
    34.7936  34.8946  35.7906  36.1327  36.4209  36.8546  37.7906  37.8799
    38.0352  38.9371  38.9454  39.4492  40.1937  41.8296  41.9922  42.1055
    42.3789  42.8702  43.1917  43.9272  44.7296  45.1715  45.4504  45.6363
    46.8286  47.6315  47.7078  47.8854  48.1650  48.1813  48.5360  48.9902

          k = 0.4000-0.5000 0.1429 (  2650 PWs)   bands (ev):

   -27.9867 -27.9866  -7.2978  -6.8274  -5.9699  -5.9667  -5.3364  -4.5110
     0.2838   0.2950   0.3608   0.4589   0.7409   0.8730  10.3181  12.7491
    13.2224  13.3851  13.6954  14.2141  14.7715  14.8926  15.1489  15.3180
    15.7272  16.2887  16.5056  16.7924  17.1923  17.2338  17.4434  20.2511
    31.4903  31.5023  31.9567  32.8023  33.1934  33.3717  33.5258  34.2944
    34.3303  35.1317  35.6723  36.3709  36.5228  37.1066  37.6336  37.6384
    39.1635  39.2777  39.2998  40.6058  40.6401  41.7419  41.8738  41.9851
    42.2518  42.6857  43.0414  43.4917  44.2556  45.3606  45.4455  45.6051
    46.4840  46.8119  46.8261  47.2952  47.6255  48.2901  48.3342  49.0659

          k = 0.4000-0.5000 0.2857 (  2640 PWs)   bands (ev):

   -27.9847 -27.9847  -6.9777  -6.7054  -6.0433  -6.0410  -5.4798  -5.0693
     0.4161   0.4380   0.5262   0.5284   0.7230   0.7912  11.5342  12.7985
    13.2565  13.3949  13.8170  14.1609  14.7751  14.9274  15.2867  15.5052
    15.8922  16.0972  16.4958  16.6386  16.9393  16.9437  17.0788  18.2974
    32.0163  32.1538  32.6266  32.6784  33.0218  33.4679  33.6416  33.8245
    33.8712  34.7357  35.6443  35.9495  36.6435  37.0587  37.4138  38.4744
    39.4016  40.2517  40.6713  40.8197  41.2597  41.6027  41.9278  42.2177
    42.4138  42.6660  43.0543  43.5520  44.6218  44.6593  45.2369  45.4564
    45.7210  46.0639  46.1005  46.9135  47.6363  48.4194  48.4223  48.7132

          k = 0.4000-0.5000 0.4286 (  2640 PWs)   bands (ev):

   -27.9837 -27.9837  -6.5807  -6.4986  -6.1008  -6.1004  -5.7229  -5.6199
     0.5380   0.5407   0.6161   0.6200   0.7016   0.7161  12.9071  13.0316
    13.1135  13.3697  14.2029  14.2374  14.8699  15.0078  15.5037  15.5981
    15.9028  15.9874  16.3626  16.3780  16.5411  16.5856  16.6071  16.6626
    32.5743  32.5911  32.8160  32.9055  33.3430  33.5781  33.6309  33.6348
    33.7834  33.9011  36.1248  36.2225  36.7215  36.7613  37.4772  37.8050
    39.6973  39.7492  40.0804  40.1537  41.1126  41.1165  41.9977  42.0723
    43.8931  44.0084  44.3581  44.4449  44.6940  45.0928  45.6850  45.7469
    46.3506  46.4080  46.4738  46.7915  47.3685  47.5919  48.1312  48.6955

     the Fermi energy is    43.6988 ev

!    total energy              =   -1059.43095870 Ry
     Harris-Foulkes estimate   =   -1059.43097050 Ry
     estimated scf accuracy    <       0.00001273 Ry

     The total energy is the sum of the following terms:

     one-electron contribution =     236.39890428 Ry
     hartree contribution      =      56.40740624 Ry
     xc contribution           =    -128.17980918 Ry
     ewald contribution        =   -1223.77289839 Ry
     smearing contrib. (-TS)   =      -0.28456165 Ry

     convergence has been achieved in   9 iterations

     Forces acting on atoms (Ry/au):

     atom    1 type  1   force =     0.00000000    0.00000000    0.00000000
     atom    2 type  1   force =     0.00000000    0.00000000    0.00000000
     atom    3 type  1   force =     0.00000000    0.00000000    0.00000000
     atom    4 type  1   force =     0.00000000    0.00000000    0.00000000
     atom    5 type  1   force =     0.00000000    0.00000000    0.00000000
     atom    6 type  1   force =     0.00000000    0.00000000    0.00000000
     atom    7 type  2   force =     0.00000000    0.00000000    0.00000000
     atom    8 type  2   force =     0.00000000    0.00000000    0.00000000

     Total force =     0.000000     Total SCF correction =     0.000000


     entering subroutine stress ...

          total   stress  (Ry/bohr**3)                   (kbar)     P= 4887.19
   0.03322247   0.00000000   0.00000000       4887.19      0.00      0.00
   0.00000000   0.03322247   0.00000000          0.00   4887.19      0.00
   0.00000000   0.00000000   0.03322247          0.00      0.00   4887.19


     BFGS Geometry Optimization

     number of scf cycles    =   1
     number of bfgs steps    =   0

     enthalpy new            =   -1059.4309586986 Ry

     new trust radius        =       0.5000000000 bohr
     new conv_thr            =       0.0001000000 Ry

     new unit-cell volume =    828.02266 a.u.^3 (   122.70030 Ang^3 )

CELL_PARAMETERS (alat=  8.53457320)
   1.100269143   0.000000000   0.000000000
   0.000000000   1.100269143   0.000000000
   0.000000000   0.000000000   1.100269143

ATOMIC_POSITIONS (crystal)
Cr       0.000000000   0.500000000   0.250000000
Cr       0.000000000   0.500000000   0.750000000
Cr       0.500000000   0.750000000   0.000000000
Cr       0.500000000   0.250000000   0.000000000
Cr       0.750000000   0.000000000   0.500000000
Cr       0.250000000   0.000000000   0.500000000
Si       0.500000000   0.500000000   0.500000000
Si       0.000000000   0.000000000   0.000000000



     Writing output data file Prototype-La-cP8-Cr3Si.save
     NEW-OLD atomic charge density approx. for the potential
     NEW k-points:
        k(    1) = (   0.0000000   0.0000000   0.0000000), wk =   0.0095238
        k(    2) = (   0.0000000   0.0000000   0.1298384), wk =   0.0190476
        k(    3) = (   0.0000000   0.0000000   0.2596767), wk =   0.0190476
        k(    4) = (   0.0000000   0.0000000   0.3895151), wk =   0.0190476
        k(    5) = (   0.0000000   0.1514781   0.0000000), wk =   0.0190476
        k(    6) = (   0.0000000   0.1514781   0.1298384), wk =   0.0380952
        k(    7) = (   0.0000000   0.1514781   0.2596767), wk =   0.0380952
        k(    8) = (   0.0000000   0.1514781   0.3895151), wk =   0.0380952
        k(    9) = (   0.0000000   0.3029562   0.0000000), wk =   0.0190476
        k(   10) = (   0.0000000   0.3029562   0.1298384), wk =   0.0380952
        k(   11) = (   0.0000000   0.3029562   0.2596767), wk =   0.0380952
        k(   12) = (   0.0000000   0.3029562   0.3895151), wk =   0.0380952
        k(   13) = (   0.0000000  -0.4544343   0.0000000), wk =   0.0095238
        k(   14) = (   0.0000000  -0.4544343   0.1298384), wk =   0.0190476
        k(   15) = (   0.0000000  -0.4544343   0.2596767), wk =   0.0190476
        k(   16) = (   0.0000000  -0.4544343   0.3895151), wk =   0.0190476
        k(   17) = (   0.1817737   0.0000000   0.0000000), wk =   0.0190476
        k(   18) = (   0.1817737   0.0000000   0.1298384), wk =   0.0380952
        k(   19) = (   0.1817737   0.0000000   0.2596767), wk =   0.0380952
        k(   20) = (   0.1817737   0.0000000   0.3895151), wk =   0.0380952
        k(   21) = (   0.1817737   0.1514781   0.0000000), wk =   0.0380952
        k(   22) = (   0.1817737   0.1514781   0.1298384), wk =   0.0761905
        k(   23) = (   0.1817737   0.1514781   0.2596767), wk =   0.0761905
        k(   24) = (   0.1817737   0.1514781   0.3895151), wk =   0.0761905
        k(   25) = (   0.1817737   0.3029562   0.0000000), wk =   0.0380952
        k(   26) = (   0.1817737   0.3029562   0.1298384), wk =   0.0761905
        k(   27) = (   0.1817737   0.3029562   0.2596767), wk =   0.0761905
        k(   28) = (   0.1817737   0.3029562   0.3895151), wk =   0.0761905
        k(   29) = (   0.1817737  -0.4544343   0.0000000), wk =   0.0190476
        k(   30) = (   0.1817737  -0.4544343   0.1298384), wk =   0.0380952
        k(   31) = (   0.1817737  -0.4544343   0.2596767), wk =   0.0380952
        k(   32) = (   0.1817737  -0.4544343   0.3895151), wk =   0.0380952
        k(   33) = (   0.3635474   0.0000000   0.0000000), wk =   0.0190476
        k(   34) = (   0.3635474   0.0000000   0.1298384), wk =   0.0380952
        k(   35) = (   0.3635474   0.0000000   0.2596767), wk =   0.0380952
        k(   36) = (   0.3635474   0.0000000   0.3895151), wk =   0.0380952
        k(   37) = (   0.3635474   0.1514781   0.0000000), wk =   0.0380952
        k(   38) = (   0.3635474   0.1514781   0.1298384), wk =   0.0761905
        k(   39) = (   0.3635474   0.1514781   0.2596767), wk =   0.0761905
        k(   40) = (   0.3635474   0.1514781   0.3895151), wk =   0.0761905
        k(   41) = (   0.3635474   0.3029562   0.0000000), wk =   0.0380952
        k(   42) = (   0.3635474   0.3029562   0.1298384), wk =   0.0761905
        k(   43) = (   0.3635474   0.3029562   0.2596767), wk =   0.0761905
        k(   44) = (   0.3635474   0.3029562   0.3895151), wk =   0.0761905
        k(   45) = (   0.3635474  -0.4544343   0.0000000), wk =   0.0190476
        k(   46) = (   0.3635474  -0.4544343   0.1298384), wk =   0.0380952
        k(   47) = (   0.3635474  -0.4544343   0.2596767), wk =   0.0380952
        k(   48) = (   0.3635474  -0.4544343   0.3895151), wk =   0.0380952

     total cpu time spent up to now is      173.0 secs

     Self-consistent Calculation

     iteration #  1     ecut=    40.00 Ry     beta=0.70
     CG style diagonalization
     c_bands:  1 eigenvalues not converged
     c_bands:  3 eigenvalues not converged
     c_bands:  1 eigenvalues not converged
     c_bands:  4 eigenvalues not converged
     c_bands:  4 eigenvalues not converged
     c_bands:  1 eigenvalues not converged
     c_bands:  5 eigenvalues not converged
     c_bands:  1 eigenvalues not converged
     c_bands:  1 eigenvalues not converged
     c_bands:  4 eigenvalues not converged
     c_bands:  2 eigenvalues not converged
     c_bands:  1 eigenvalues not converged
     ethr =  1.00E-06,  avg # of iterations = 20.4

     total cpu time spent up to now is      230.2 secs

     total energy              =   -1057.80118877 Ry
     Harris-Foulkes estimate   =   -1070.22846253 Ry
     estimated scf accuracy    <      16.37693579 Ry

     iteration #  2     ecut=    40.00 Ry     beta=0.70
     CG style diagonalization
     ethr =  1.00E-02,  avg # of iterations =  4.0

     total cpu time spent up to now is      242.5 secs

     total energy              =   -1056.12392831 Ry
     Harris-Foulkes estimate   =   -1066.00426224 Ry
     estimated scf accuracy    <      18.90699526 Ry

     iteration #  3     ecut=    40.00 Ry     beta=0.70
     CG style diagonalization
     ethr =  1.00E-02,  avg # of iterations =  3.7

     total cpu time spent up to now is      253.9 secs

     total energy              =   -1062.85290196 Ry
     Harris-Foulkes estimate   =   -1064.33543936 Ry
     estimated scf accuracy    <       3.68979301 Ry

     iteration #  4     ecut=    40.00 Ry     beta=0.70
     CG style diagonalization
     ethr =  3.07E-03,  avg # of iterations =  3.4

     total cpu time spent up to now is      263.4 secs

     total energy              =   -1063.04209827 Ry
     Harris-Foulkes estimate   =   -1063.23267425 Ry
     estimated scf accuracy    <       0.52588789 Ry

     iteration #  5     ecut=    40.00 Ry     beta=0.70
     CG style diagonalization
     ethr =  4.38E-04,  avg # of iterations =  3.5

     total cpu time spent up to now is      273.7 secs

     total energy              =   -1063.13295221 Ry
     Harris-Foulkes estimate   =   -1063.14151803 Ry
     estimated scf accuracy    <       0.01617320 Ry

     iteration #  6     ecut=    40.00 Ry     beta=0.70
     CG style diagonalization
     c_bands:  1 eigenvalues not converged
     c_bands:  1 eigenvalues not converged
     ethr =  1.35E-05,  avg # of iterations =  4.5

     total cpu time spent up to now is      286.9 secs

     total energy              =   -1063.14050821 Ry
     Harris-Foulkes estimate   =   -1063.14171960 Ry
     estimated scf accuracy    <       0.00252768 Ry

     iteration #  7     ecut=    40.00 Ry     beta=0.70
     CG style diagonalization
     c_bands:  1 eigenvalues not converged
     c_bands:  1 eigenvalues not converged
     ethr =  2.11E-06,  avg # of iterations =  3.8

     total cpu time spent up to now is      297.6 secs

     End of self-consistent calculation

          k = 0.0000 0.0000 0.0000 (  2601 PWs)   bands (ev):

   -37.7425 -37.7121 -17.2391 -16.7433 -16.7433 -15.6218 -15.6218 -15.6218
    -8.8916  -8.8916  -8.8916  -8.8655  -8.8655  -8.8655   1.6791   1.6791
     2.3270   4.0554   4.0554   4.0554   5.4984   5.4984   5.4984   5.8911
     5.8911   5.8911   6.1810   6.1810   6.1810   8.3889   8.3889   8.3889
    23.9390  23.9390  24.2778  24.8415  24.8415  24.8415  25.3055  25.3055
    25.3055  25.7938  25.8066  25.8066  26.0747  26.0747  26.0747  26.6019
    26.8278  27.4518  27.4518  27.4518  27.8120  27.8120  31.2543  31.2543
    31.2543  31.3750  31.3750  32.0979  32.0979  32.0979  33.0686  33.0686
    33.0686  35.6406  35.6406  36.4097  36.4098  36.4098  37.5451  37.8572

          k = 0.0000 0.0000 0.1298 (  2657 PWs)   bands (ev):

   -37.7645 -37.7454 -17.2114 -16.7686 -16.7038 -15.6941 -15.6237 -15.6237
    -8.9123  -8.9123  -8.8961  -8.8961  -8.8960  -8.8827   1.6830   1.7857
     2.4014   4.0429   4.0429   4.1442   5.4381   5.4381   5.5046   5.7779
     5.9745   5.9745   6.1193   6.1279   6.1279   7.9574   8.3770   8.3770
    23.7329  24.1532  24.3842  24.5494  24.8936  24.8936  25.1213  25.1213
    25.2917  25.5197  25.7546  25.7629  25.9526  25.9526  26.9830  27.0016
    27.1398  27.1777  27.7342  27.7381  27.7381  28.2038  30.9070  30.9070
    31.0220  31.0319  31.1962  32.1693  32.3615  32.3615  33.2685  33.2685
    33.9260  35.0502  35.0877  36.1189  36.1189  36.9739  36.9739  37.0027

          k = 0.0000 0.0000 0.2597 (  2677 PWs)   bands (ev):

   -37.7701 -37.7593 -17.1369 -16.8364 -16.5830 -15.8799 -15.6221 -15.6221
    -8.9236  -8.9236  -8.9040  -8.9040  -8.8833  -8.8790   1.7367   1.8820
     2.9684   4.0221   4.0221   4.3760   5.4125   5.4125   5.4421   5.5922
     6.0158   6.0589   6.0589   6.1203   6.1203   6.8305   8.3620   8.3620
    23.2665  24.3837  24.3837  24.4181  24.5481  24.6582  25.2733  25.4683
    25.4884  25.4884  25.5738  25.6039  25.8307  25.8307  26.7021  27.1414
    27.5134  28.0808  28.1986  28.1986  28.8248  29.7372  30.4303  30.4829
    30.4829  30.6947  30.9312  31.9159  32.1265  32.1265  33.6135  33.6135
    34.1839  34.3225  34.9202  36.2258  36.2259  36.6641  36.6641  37.5801

          k = 0.0000 0.0000 0.3895 (  2658 PWs)   bands (ev):

   -37.7560 -37.7550 -17.0359 -16.9302 -16.3821 -16.1301 -15.6200 -15.6200
    -8.9232  -8.9232  -8.9013  -8.9013  -8.8515  -8.8430   1.7995   1.8539
     4.0030   4.0030   4.0513   4.7146   5.0259   5.4175   5.4175   5.4713
     5.7264   5.8783   6.0065   6.0065   6.2403   6.2403   8.3599   8.3599
    23.2599  23.7594  23.9944  23.9944  24.8484  24.9227  25.2687  25.3184
    25.3860  25.6518  25.6568  25.6568  26.0589  26.0589  27.0796  27.3230
    27.6628  28.4499  28.4499  29.0578  29.1809  30.1418  30.1418  30.2381
    30.3986  30.5322  31.6800  31.6800  32.0915  32.2039  33.7012  33.8164
    33.9270  33.9270  34.2448  35.2267  35.7999  35.7998  37.8335  37.8334

          k = 0.0000 0.1515 0.0000 (  2653 PWs)   bands (ev):

   -37.7613 -37.7454 -17.2012 -16.7769 -16.6893 -15.7182 -15.6235 -15.6235
    -8.9110  -8.9110  -8.8964  -8.8964  -8.8882  -8.8791   1.6905   1.8159
     2.4514   4.0422   4.0422   4.1807   5.4319   5.4319   5.5157   5.7349
     5.9995   5.9995   6.1062   6.1192   6.1192   7.8138   8.3775   8.3775
    23.6438  24.2058  24.3756  24.6532  24.8371  24.8371  25.1459  25.1459
    25.2888  25.4284  25.7035  25.7376  25.9264  25.9264  27.0095  27.1026
    27.2800  27.2816  27.7188  27.8174  27.8174  28.3749  30.8349  30.8349
    30.9423  30.9529  31.1719  32.1583  32.3691  32.3691  33.3348  33.3348
    34.1421  34.9210  34.9345  36.1077  36.1077  36.8396  36.8395  37.1337

          k = 0.0000 0.1515 0.1298 (  2662 PWs)   bands (ev):

   -37.7689 -37.7470 -17.1730 -16.7626 -16.6880 -15.7237 -15.6883 -15.6227
    -8.9197  -8.9103  -8.9055  -8.8963  -8.8929  -8.8663   1.7535   1.9554
     2.4867   4.0454   4.1334   4.1696   5.3336   5.3523   5.6196   5.8252
     5.9037   5.9902   6.0514   6.0868   6.1909   7.7942   7.9507   8.3724
    23.7779  24.0686  24.4592  24.6046  24.6383  24.7798  24.8719  25.0025
    25.2859  25.4463  25.6522  25.6672  25.8420  26.6648  27.1721  27.2175
    27.4947  27.5871  27.6923  28.0335  28.1304  28.3528  30.4918  30.7644
    30.7689  30.9704  31.2508  31.8826  32.5714  32.6870  33.1905  33.6826
    34.1290  34.3984  34.8484  36.0577  36.4272  36.4555  36.6549  37.2504

          k = 0.0000 0.1515 0.2597 (  2666 PWs)   bands (ev):

   -37.7640 -37.7562 -17.0972 -16.8030 -16.5907 -15.8861 -15.7146 -15.6206
    -8.9200  -8.9169  -8.9083  -8.9044  -8.8696  -8.8507   1.7999   2.1539
     2.9508   4.0502   4.1503   4.3637   5.2132   5.2734   5.6568   5.6573
     5.9220   5.9923   6.0241   6.1580   6.2049   6.8544   7.7973   8.3628
    23.4437  24.1368  24.2624  24.2647  24.5099  24.7836  24.9080  25.1549
    25.3478  25.4280  25.6254  25.7394  25.8484  26.7121  27.0705  27.3846
    27.7402  28.2175  28.3508  28.6358  29.0373  29.6405  30.0423  30.4128
    30.4690  30.7279  31.1324  31.7104  32.1229  32.4850  33.0793  33.6957
    33.8555  34.7184  34.9730  35.8961  36.3334  36.4016  36.4844  37.4480

          k = 0.0000 0.1515 0.3895 (  2658 PWs)   bands (ev):

   -37.7587 -37.7532 -17.0034 -16.8844 -16.3927 -16.1383 -15.7148 -15.6191
    -8.9242  -8.9188  -8.9079  -8.8991  -8.8449  -8.8290   1.8256   2.1713
     3.9332   4.0533   4.2183   4.6629   4.9844   5.2848   5.3910   5.5687
     5.5745   5.9564   5.9579   6.1571   6.1693   6.2580   7.7928   8.3629
    23.3098  23.6893  23.8611  24.2324  24.6503  24.9131  24.9965  25.1102
    25.3063  25.3102  25.7380  25.7850  26.2724  26.9091  27.2071  27.3731
    28.0048  28.5754  28.8677  29.1301  29.2872  30.0177  30.0247  30.4338
    30.4382  30.8580  31.4579  31.4752  31.9771  32.4935  33.0952  33.1629
    33.8731  34.7096  34.9214  35.0683  35.5855  35.9570  36.7789  37.3356

          k = 0.0000 0.3030 0.0000 (  2677 PWs)   bands (ev):

   -37.7699 -37.7591 -17.1049 -16.8660 -16.5240 -15.9602 -15.6210 -15.6210
    -8.9271  -8.9271  -8.9084  -8.9084  -8.8732  -8.8615   1.7579   1.8813
     3.2766   4.0132   4.0132   4.4755   5.3017   5.4117   5.4117   5.6332
     5.9767   6.0362   6.0362   6.1671   6.1671   6.4012   8.3535   8.3535
    23.2039  24.2190  24.2190  24.2664  24.6459  24.6684  25.2688  25.4048
    25.5280  25.6143  25.6143  25.7804  25.8459  25.8459  26.6946  27.2138
    27.4486  28.3181  28.3181  28.4359  29.2902  30.2475  30.3454  30.3454
    30.4668  30.6364  30.7563  31.8390  31.9615  31.9615  33.7176  33.7176
    33.9545  34.1205  34.9025  36.0442  36.0442  36.8753  37.0874  37.0874

          k = 0.0000 0.3030 0.1298 (  2660 PWs)   bands (ev):

   -37.7593 -37.7548 -17.0751 -16.8380 -16.5317 -15.9640 -15.6910 -15.6203
    -8.9190  -8.9190  -8.9062  -8.8999  -8.8627  -8.8428   1.8056   2.0795
     3.2623   4.0430   4.1166   4.4686   5.1756   5.2970   5.5651   5.6565
     5.9104   5.9963   6.0626   6.1683   6.2008   6.4358   7.9413   8.3661
    23.3249  23.9965  24.1300  24.3924  24.5174  24.8492  24.9815  25.0813
    25.3737  25.3738  25.7699  25.7717  25.9168  26.6963  26.9250  27.2942
    27.7547  28.2605  28.5864  28.6806  29.4521  29.9076  30.3216  30.4050
    30.4488  30.6698  30.9918  31.4320  31.9291  32.3698  33.1558  33.5663
    33.8522  34.8492  34.8817  35.7671  36.2405  36.5254  36.6405  37.0087

          k = 0.0000 0.3030 0.2597 (  2658 PWs)   bands (ev):

   -37.7616 -37.7517 -17.0127 -16.7644 -16.5271 -15.9893 -15.8642 -15.6185
    -8.9227  -8.9152  -8.9091  -8.8931  -8.8453  -8.8233   1.8301   2.7563
     3.2613   4.1068   4.3327   4.4313   5.0614   5.1681   5.4627   5.6709
     5.8749   5.9241   6.0612   6.2221   6.2869   6.4373   6.8983   8.3588
    23.4409  23.7936  23.8146  24.0142  24.4391  24.6539  25.0209  25.0842
    25.4945  25.5751  25.6669  25.9498  26.4642  26.7639  27.0365  27.5523
    28.5060  29.0244  29.1382  29.3223  29.4907  29.8517  30.0327  30.1912
    30.3331  30.4711  30.5917  31.3636  32.5184  32.8980  32.9330  33.1527
    34.0900  34.6421  35.5057  35.5240  35.7901  36.0438  36.3947  36.3975

          k = 0.0000 0.3030 0.3895 (  2654 PWs)   bands (ev):

   -37.7554 -37.7529 -16.9660 -16.7203 -16.4040 -16.1666 -15.9464 -15.6163
    -8.9306  -8.9245  -8.9100  -8.8886  -8.8186  -8.7967   1.8464   3.1244
     3.9053   4.1623   4.4371   4.5350   5.0132   5.1359   5.2778   5.3469
     5.6178   5.8600   5.9998   6.1781   6.2590   6.3329   6.4853   8.3460
    23.2793  23.4568  23.5323  24.1227  24.4026  24.5725  25.2411  25.2620
    25.4350  25.7384  25.8008  26.2107  26.5704  26.7878  27.0381  27.8041
    28.8314  28.9881  29.1895  29.4409  29.6010  29.6510  30.1579  30.2144
    30.5939  30.8861  30.9042  31.9076  32.6959  32.9925  32.9952  33.2844
    34.0277  34.5866  34.7286  35.4263  35.5418  35.8487  36.1287  36.3217

          k = 0.0000-0.4544 0.0000 (  2666 PWs)   bands (ev):

   -37.7589 -37.7589 -16.9830 -16.9830 -16.2597 -16.2597 -15.6198 -15.6198
    -8.9265  -8.9265  -8.9046  -8.9046  -8.8476  -8.8476   1.8240   1.8240
     4.0005   4.0005   4.6613   4.6613   4.9358   4.9358   5.4178   5.4178
     5.8008   5.8008   5.9946   5.9946   6.2541   6.2541   8.3583   8.3583
    23.4532  23.4532  23.9407  23.9407  24.9707  24.9707  25.2841  25.2841
    25.4346  25.4346  25.6515  25.6515  26.1398  26.1398  27.2237  27.2237
    28.3654  28.3654  28.4669  28.4669  29.7339  29.7339  30.0929  30.0929
    30.4890  30.4890  31.6008  31.6008  32.7543  32.7543  33.6950  33.6950
    33.9936  33.9936  34.0893  34.0893  35.7391  35.7391  38.0061  38.0060

          k = 0.0000-0.4544 0.1298 (  2666 PWs)   bands (ev):

   -37.7592 -37.7591 -16.9773 -16.9305 -16.2697 -16.2646 -15.6905 -15.6190
    -8.9263  -8.9261  -8.9087  -8.9065  -8.8430  -8.8345   1.8303   2.0801
     4.0403   4.0471   4.6692   4.6752   4.8308   4.9537   5.3175   5.4972
     5.6021   5.9302   5.9588   6.1406   6.1849   6.2630   7.9323   8.3575
    23.3447  23.5685  23.8439  24.1477  24.8250  24.9871  24.9901  25.1174
    25.2748  25.3804  25.5933  25.7770  26.2857  26.8244  27.2572  27.3965
    28.1637  28.5412  28.7957  28.8012  29.6599  29.7700  30.1117  30.3000
    30.3891  30.8513  31.4062  31.4408  32.4154  33.1705  33.1937  33.2262
    33.6191  33.9766  34.7211  34.9024  35.4296  35.8564  37.0846  37.8411

          k = 0.0000-0.4544 0.2597 (  2658 PWs)   bands (ev):

   -37.7559 -37.7558 -16.9636 -16.7822 -16.2920 -16.2773 -15.8757 -15.6171
    -8.9335  -8.9249  -8.9122  -8.8915  -8.8220  -8.8026   1.8404   2.8073
     4.1284   4.1348   4.6140   4.7174   4.7516   5.0178   5.1743   5.3219
     5.5882   5.8768   6.0366   6.1380   6.2395   6.3134   6.8858   8.3471
    23.2565  23.5302  23.6241  24.2538  24.2588  24.6292  25.2277  25.2392
    25.3788  25.5462  25.8151  26.0054  26.8014  26.8482  26.8899  28.0177
    28.8707  28.9377  29.1979  29.2243  29.3783  29.6918  29.7915  29.9698
    30.7181  30.7946  31.4264  32.4510  32.5364  32.6861  33.0106  33.3540
    33.5410  34.0194  34.8997  35.3924  35.6153  36.0709  36.1258  36.7207

          k = 0.0000-0.4544 0.3895 (  2662 PWs)   bands (ev):

   -37.7579 -37.7579 -16.9534 -16.5914 -16.3109 -16.3015 -16.0825 -15.6148
    -8.9318  -8.9307  -8.9156  -8.8903  -8.8103  -8.7857   1.8607   3.8391
     4.1697   4.2349   4.5029   4.7599   4.7757   5.0975   5.0996   5.1177
     5.3071   5.8110   5.8663   5.9099   6.2728   6.2824   6.3678   8.3352
    23.2002  23.2228  23.2532  24.3606  24.3628  24.5023  25.4489  25.4556
    25.4587  25.9012  26.1538  26.2579  26.5274  26.5874  27.3608  27.6917
    28.3016  28.7880  29.0097  29.3107  29.3575  30.4019  30.4776  30.4985
    31.0072  31.0535  31.7476  32.4371  32.9507  33.1125  33.1272  33.3030
    33.6532  34.2825  34.6728  35.0052  35.1876  35.7821  35.9365  35.9893

          k = 0.1818 0.0000 0.0000 (  2661 PWs)   bands (ev):

   -37.7696 -37.7451 -17.1865 -16.7909 -16.6654 -15.7569 -15.6230 -15.6230
    -8.9181  -8.9181  -8.8971  -8.8971  -8.8928  -8.8735   1.7024   1.8497
     2.5507   4.0370   4.0370   4.2297   5.4234   5.4234   5.5338   5.6587
     6.0319   6.0319   6.0850   6.1061   6.1061   7.5713   8.3704   8.3704
    23.5166  24.2778  24.3963  24.7200  24.7200  24.7926  25.2214  25.2214
    25.2843  25.3147  25.6270  25.7086  25.8922  25.8922  26.9700  27.0580
    27.4889  27.5701  27.8093  27.9287  27.9287  28.6757  30.7361  30.7361
    30.8090  30.8661  31.1268  32.1168  32.3427  32.3427  33.4237  33.4237
    34.4313  34.7147  34.7434  36.1581  36.1581  36.6535  36.6535  37.3132

          k = 0.1818 0.0000 0.1298 (  2667 PWs)   bands (ev):

   -37.7662 -37.7545 -17.1570 -16.7722 -16.6682 -15.7608 -15.6902 -15.6226
    -8.9205  -8.9159  -8.9067  -8.9010  -8.8842  -8.8680   1.7647   2.0069
     2.5669   4.0444   4.1290   4.2174   5.3163   5.3219   5.6394   5.7733
     5.9404   5.9622   6.0739   6.0741   6.1920   7.5596   7.9441   8.3702
    23.6647  24.1258  24.4919  24.5276  24.6391  24.6524  24.9881  24.9886
    25.3463  25.4019  25.5819  25.6609  25.8098  26.6641  27.1841  27.2669
    27.5299  27.7599  27.9708  28.0677  28.2511  28.6250  30.3866  30.6693
    30.7041  30.9172  31.2756  31.8014  32.5091  32.6698  33.1806  33.7365
    34.2204  34.2822  34.8372  36.1183  36.3377  36.3497  36.7030  37.2039

          k = 0.1818 0.0000 0.2597 (  2659 PWs)   bands (ev):

   -37.7598 -37.7544 -17.0814 -16.7907 -16.5902 -15.8899 -15.7516 -15.6203
    -8.9166  -8.9106  -8.9102  -8.8986  -8.8642  -8.8451   1.8078   2.2879
     2.9554   4.0611   4.1997   4.3588   5.1826   5.2410   5.6349   5.6956
     5.9416   5.9623   6.0021   6.1707   6.2267   6.8556   7.5732   8.3642
    23.4930  24.0644  24.1692  24.1924  24.4985  24.8127  24.8183  25.2477
    25.2739  25.4629  25.6453  25.6941  25.9594  26.8107  27.0892  27.5383
    27.7634  28.4704  28.4792  28.7625  29.1089  29.6021  29.9641  30.3376
    30.4549  30.6657  31.0285  31.9881  32.0233  32.4858  32.9924  33.5904
    33.9523  34.6249  35.1305  35.8427  36.2094  36.2864  36.5114  37.3332

          k = 0.1818 0.0000 0.3895 (  2660 PWs)   bands (ev):

   -37.7595 -37.7541 -16.9942 -16.8605 -16.3964 -16.1421 -15.7539 -15.6187
    -8.9249  -8.9192  -8.9107  -8.9003  -8.8393  -8.8255   1.8290   2.3171
     3.9227   4.0716   4.2623   4.6398   4.9766   5.2487   5.3832   5.5128
     5.5908   5.9381   6.0024   6.1294   6.1977   6.2704   7.5647   8.3617
    23.3118  23.7057  23.7962  24.2383  24.5157  24.8156  25.0346  25.1280
    25.3188  25.3275  25.7877  25.8126  26.3940  26.9202  27.1320  27.6044
    28.2074  28.6296  28.9545  29.1709  29.3458  29.9124  30.0153  30.2348
    30.4972  30.9470  31.3465  31.7511  31.9546  32.5291  32.9958  33.0662
    33.9284  34.7759  34.8134  35.3342  35.5499  35.9550  36.5070  37.0975

          k = 0.1818 0.1515 0.0000 (  2672 PWs)   bands (ev):

   -37.7656 -37.7605 -17.1471 -16.7694 -16.6647 -15.7646 -15.7117 -15.6223
    -8.9237  -8.9185  -8.9099  -8.9027  -8.8858  -8.8627   1.7717   2.0677
     2.5791   4.0478   4.1604   4.2138   5.2965   5.2968   5.6515   5.7956
     5.9159   5.9460   6.0549   6.0854   6.2006   7.5546   7.8041   8.3660
    23.6947  24.0466  24.4676  24.5210  24.6079  24.6475  24.9272  25.0584
    25.3775  25.3802  25.5158  25.6910  25.7775  26.7964  27.1980  27.3075
    27.5526  27.8546  28.0443  28.2173  28.3386  28.6178  30.3223  30.6065
    30.6937  30.8588  31.3228  31.8036  32.4941  32.6708  33.1276  33.8427
    34.1110  34.2299  34.8705  36.1274  36.2747  36.3582  36.6715  37.2650

          k = 0.1818 0.1515 0.1298 (  2665 PWs)   bands (ev):

   -37.7653 -37.7542 -17.1148 -16.7350 -16.6842 -15.7649 -15.7196 -15.6849
    -8.9301  -8.9091  -8.9058  -8.8830  -8.8786  -8.8659   1.9901   2.0973
     2.5776   4.1422   4.1705   4.2185   5.0567   5.5258   5.5934   5.8024
     5.8901   5.9514   6.0085   6.1366   6.1766   7.5566   7.7973   7.9470
    23.8852  24.1657  24.3439  24.4353  24.5022  24.6434  24.7564  24.7841
    25.1865  25.2304  25.5331  25.5589  26.5262  26.8355  27.6271  27.7524
    27.8355  28.0371  28.1103  28.2059  28.2423  28.5422  30.2705  30.4151
    30.8511  31.0636  31.3362  31.9313  32.4270  32.5945  33.1333  33.2756
    33.5625  34.9482  35.0517  35.9316  35.9494  36.1495  36.2985  37.2010

          k = 0.1818 0.1515 0.2597 (  2655 PWs)   bands (ev):

   -37.7627 -37.7466 -17.0336 -16.7513 -16.6096 -15.8924 -15.7583 -15.7117
    -8.9156  -8.9092  -8.9027  -8.8777  -8.8615  -8.8444   2.1296   2.3202
     2.9256   4.1888   4.2275   4.3742   4.8923   5.4938   5.5720   5.6731
     5.8526   5.9767   6.0691   6.1341   6.2005   6.8728   7.5709   7.7996
    23.7090  23.9994  24.2071  24.3079  24.5292  24.5693  24.7156  24.8387
    25.0960  25.2905  25.4142  25.6283  26.7288  27.1506  27.6406  27.9324
    28.0905  28.3992  28.5262  28.7843  29.2590  29.5075  29.8711  30.3002
    30.7443  30.9557  31.5208  31.7565  31.9233  32.4124  32.7331  32.8562
    33.9863  34.8632  35.2485  35.4517  35.7111  35.8469  36.1050  37.2058

          k = 0.1818 0.1515 0.3895 (  2655 PWs)   bands (ev):

   -37.7554 -37.7527 -16.9361 -16.8349 -16.4079 -16.1492 -15.7564 -15.7156
    -8.9196  -8.9088  -8.9018  -8.8884  -8.8334  -8.8289   2.1738   2.3284
     3.8874   4.1820   4.3183   4.6371   4.7909   5.3261   5.3735   5.4754
     5.6849   5.7806   6.1176   6.1447   6.1801   6.2112   7.5669   7.7919
    23.4573  23.5523  24.1119  24.3299  24.5277  24.6807  24.8051  24.9197
    25.2202  25.2703  25.4009  25.6520  27.2051  27.2565  27.5161  27.7839
    28.1595  28.6935  29.0698  29.3648  29.5954  30.0779  30.2091  30.3276
    30.7836  30.9979  31.1395  31.6287  32.0342  32.3053  32.5920  32.9713
    34.0316  34.6495  34.9567  35.2570  35.3242  35.6842  35.8275  36.3384

          k = 0.1818 0.3030 0.0000 (  2656 PWs)   bands (ev):

   -37.7606 -37.7504 -17.0515 -16.8122 -16.5355 -15.9694 -15.7528 -15.6194
    -8.9209  -8.9107  -8.9086  -8.8963  -8.8569  -8.8337   1.8186   2.3102
     3.2511   4.0654   4.1970   4.4534   5.1236   5.2385   5.5932   5.6255
     5.9644   5.9661   5.9925   6.1959   6.2364   6.4452   7.5706   8.3615
    23.3996  23.9371  24.0257  24.2314  24.4677  24.8135  24.9015  25.1765
    25.2745  25.4169  25.7275  25.8296  26.1111  26.7915  27.0220  27.6002
    27.8930  28.4957  28.7556  28.8842  29.5112  29.8117  30.2564  30.2881
    30.4051  30.6229  30.7994  31.7670  31.9505  32.4334  32.9956  33.3686
[...]

          k = 0.1683 0.2805 0.2404 (  4447 PWs)   bands (ev):

   -44.3145 -44.3142 -23.6909 -23.6003 -23.5319 -23.2495 -23.2028 -23.1452
   -15.3285 -15.3279 -15.3251 -15.3234 -15.3196 -15.3160  -3.5444  -3.2509
    -2.9921  -2.2651  -2.2128  -2.1530  -2.0275  -1.6618  -1.6319  -1.5544
    -1.4572  -1.4252  -1.3404  -1.3004  -1.2698  -1.0742  -0.8302  -0.4454
    18.2804  18.3295  18.5667  18.5829  18.8705  18.8938  18.9904  19.1203
    19.2004  19.3185  19.4156  19.4578  20.7733  20.9237  21.2890  21.5893
    21.7117  21.9741  22.2249  22.3431  22.6485  22.6866  22.8025  22.8838
    23.6681  23.8662  23.9788  24.2533  24.6918  24.7598  25.1684  25.2944
    26.3038  26.6831  26.9133  27.0920  27.2158  27.2836  27.3879  28.1122

          k = 0.1683 0.2805 0.3606 (  4463 PWs)   bands (ev):

   -44.3155 -44.3152 -23.6649 -23.5792 -23.4626 -23.3361 -23.2419 -23.1462
   -15.3300 -15.3299 -15.3263 -15.3252 -15.3189 -15.3161  -3.5377  -3.0403
    -2.5682  -2.2213  -2.2022  -2.1200  -1.9920  -1.7340  -1.6999  -1.6840
    -1.5448  -1.4820  -1.3826  -1.3046  -1.2943  -1.2663  -1.0648  -0.4466
    18.1628  18.1805  18.4354  18.6354  18.8135  18.9712  19.0568  19.1540
    19.2096  19.4098  19.5041  19.7134  20.7655  21.0538  21.1462  21.4842
    21.9329  22.2157  22.3981  22.4587  22.6915  22.7941  23.3400  23.4243
    23.5751  23.8456  23.9881  24.2102  24.5992  24.9829  25.3556  25.5448
    26.1196  26.2309  26.4973  26.7768  26.9894  27.1766  27.5004  27.6126

          k = 0.1683-0.4208 0.0000 (  4440 PWs)   bands (ev):

   -44.3138 -44.3138 -23.7223 -23.6727 -23.3956 -23.3915 -23.1446 -23.0826
   -15.3315 -15.3286 -15.3276 -15.3234 -15.3162 -15.3144  -3.8410  -3.5398
    -2.3765  -2.3529  -2.0929  -2.0757  -2.0241  -1.9078  -1.7623  -1.6174
    -1.6154  -1.4150  -1.3493  -1.3187  -1.2736  -1.2457  -0.4456  -0.0203
    18.0213  18.1975  18.3322  18.6809  18.8844  19.0850  19.1658  19.2259
    19.3442  19.4782  19.5408  19.7183  20.4294  20.4977  20.7460  21.3344
    21.3450  21.3517  22.0652  22.2132  22.7591  23.0199  23.1026  23.1394
    23.5205  23.7895  23.8232  24.3492  24.7562  25.1149  25.4000  25.5792
    25.5999  26.0005  26.9181  27.1806  27.2721  27.6551  28.0570  28.6436

          k = 0.1683-0.4208 0.1202 (  4442 PWs)   bands (ev):

   -44.3139 -44.3139 -23.6939 -23.6699 -23.3963 -23.3944 -23.1451 -23.1154
   -15.3296 -15.3281 -15.3264 -15.3242 -15.3161 -15.3154  -3.6854  -3.5394
    -2.3545  -2.3423  -2.0861  -2.0772  -2.0148  -1.9696  -1.7150  -1.6841
    -1.5346  -1.4803  -1.3175  -1.3027  -1.2890  -1.2741  -0.4447  -0.2435
    18.0888  18.1402  18.5300  18.6747  18.9162  19.0478  19.1248  19.1881
    19.2938  19.3709  19.4321  19.4655  20.7640  20.8788  20.9932  21.2186
    21.3792  21.3819  22.2310  22.3108  22.7069  22.9144  23.2054  23.2749
    23.6782  23.8202  23.9107  24.2522  24.8862  25.0483  25.1113  25.2024
    25.8436  26.0028  27.0708  27.2015  27.2151  27.3514  27.7881  27.8169

          k = 0.1683-0.4208 0.2404 (  4454 PWs)   bands (ev):

   -44.3148 -44.3148 -23.6635 -23.6145 -23.4013 -23.3982 -23.2046 -23.1460
   -15.3280 -15.3277 -15.3255 -15.3248 -15.3184 -15.3171  -3.5367  -3.2402
    -2.3285  -2.2984  -2.1121  -2.0879  -2.0203  -1.9550  -1.7127  -1.7109
    -1.5326  -1.4952  -1.3617  -1.3047  -1.2952  -1.2710  -0.8313  -0.4469
    18.1435  18.1590  18.5315  18.7060  18.7344  18.9879  19.0810  19.0896
    19.2557  19.3975  19.4948  19.5829  20.8960  21.0753  21.1972  21.3593
    21.8977  21.9639  22.2328  22.4157  22.5945  22.7072  23.3822  23.4456
    23.8277  23.8401  24.0471  24.4006  24.7920  25.0796  25.1071  25.2149
    25.8051  25.9900  26.7451  26.8256  27.1548  27.3095  27.4685  27.5198

          k = 0.1683-0.4208 0.3606 (  4464 PWs)   bands (ev):

   -44.3155 -44.3155 -23.6581 -23.5053 -23.4070 -23.4025 -23.3187 -23.1467
   -15.3290 -15.3278 -15.3276 -15.3260 -15.3175 -15.3146  -3.5355  -2.5879
    -2.3256  -2.2326  -2.1762  -2.1004  -2.0354  -1.8478  -1.8024  -1.7297
    -1.6562  -1.5130  -1.4395  -1.4266  -1.2864  -1.2835  -1.2602  -0.4469
    18.0886  18.1514  18.2142  18.7923  18.8069  18.9754  18.9928  19.1974
    19.2249  19.4530  19.8795  19.9210  20.6079  20.9818  21.0019  21.3853
    21.6591  22.5830  22.6620  22.7373  23.0460  23.1181  23.3900  23.3907
    23.6423  23.9371  24.0485  24.1595  24.8933  25.1310  25.5488  25.6270
    25.9370  26.1229  26.1925  26.5437  26.7073  27.1397  27.1475  27.5655

          k = 0.3366 0.0000 0.0000 (  4440 PWs)   bands (ev):

   -44.3154 -44.3120 -23.7572 -23.6982 -23.4752 -23.2996 -23.0829 -23.0829
   -15.3331 -15.3331 -15.3271 -15.3271 -15.3174 -15.3106  -3.8697  -3.8174
    -2.6397  -2.4014  -2.4014  -2.0829  -1.8206  -1.6826  -1.6826  -1.4920
    -1.4864  -1.3936  -1.3692  -1.3692  -1.2730  -1.2730  -0.0178  -0.0178
    17.8965  18.3713  18.5892  18.5892  18.7976  19.0924  19.2753  19.3128
    19.3355  19.4543  19.6582  19.6582  20.2006  20.2006  20.6019  20.7323
    20.8955  21.6950  21.6950  21.9233  22.5774  23.0015  23.3832  23.3832
    23.5084  23.5761  23.7188  24.0693  24.0693  24.5800  26.2149  26.2154
    26.2154  26.3064  26.4435  26.9295  27.7388  27.7391  28.8859  28.8862

          k = 0.3366 0.0000 0.1202 (  4454 PWs)   bands (ev):

   -44.3149 -44.3142 -23.7439 -23.6814 -23.4774 -23.3011 -23.1151 -23.0828
   -15.3339 -15.3316 -15.3305 -15.3259 -15.3198 -15.3143  -3.8472  -3.6843
    -2.6583  -2.3784  -2.3490  -2.0940  -1.8541  -1.7342  -1.6376  -1.5438
    -1.4990  -1.3944  -1.3883  -1.2964  -1.2932  -1.2670  -0.2430  -0.0194
    17.9651  18.3223  18.4896  18.6918  18.8677  19.0357  19.1934  19.2168
    19.3961  19.4176  19.4701  19.7024  20.2819  20.3558  20.7211  20.9774
    21.0747  21.6050  21.9549  22.0223  22.6413  22.9873  23.2789  23.3725
    23.5383  23.5658  23.7547  24.0317  24.0504  24.8384  25.7136  25.9036
    26.1129  26.6397  26.8292  26.9426  27.5639  27.8000  28.2889  28.5350

          k = 0.3366 0.0000 0.2404 (  4462 PWs)   bands (ev):

   -44.3161 -44.3142 -23.7255 -23.6192 -23.4794 -23.3063 -23.2016 -23.0825
   -15.3330 -15.3317 -15.3306 -15.3236 -15.3205 -15.3161  -3.8422  -3.2448
    -2.6825  -2.3188  -2.2381  -2.1289  -1.8719  -1.8061  -1.6794  -1.5967
    -1.5267  -1.4323  -1.3409  -1.3107  -1.2567  -1.2315  -0.8339  -0.0206
    18.0425  18.2239  18.2970  18.5731  18.7298  19.0853  19.2354  19.3145
    19.3767  19.5989  19.6158  19.7222  20.2295  20.5615  20.6058  21.2899
    21.8535  22.0387  22.1339  22.3982  22.6190  22.7875  23.0584  23.2595
    23.3833  23.6080  23.7112  23.7870  25.0432  25.2226  25.4306  25.4864
    26.1669  26.5416  26.6317  27.3332  27.3710  27.6449  27.6993  27.9608

          k = 0.3366 0.0000 0.3606 (  4454 PWs)   bands (ev):

   -44.3148 -44.3148 -23.7161 -23.5459 -23.4491 -23.3471 -23.2842 -23.0822
   -15.3312 -15.3302 -15.3294 -15.3258 -15.3164 -15.3111  -3.8388  -2.7460
    -2.5461  -2.2548  -2.1535  -2.1403  -1.8571  -1.8414  -1.7909  -1.7237
    -1.6292  -1.4730  -1.4159  -1.3549  -1.2564  -1.2426  -1.2061  -0.0202
    18.0072  18.0118  18.0860  18.6424  18.7619  19.0434  19.3721  19.3992
    19.6691  19.7483  19.7504  19.8129  20.0674  20.2572  21.0752  21.1814
    21.5651  22.4238  22.5660  22.5982  22.8794  22.9481  23.1158  23.1671
    23.3865  23.6987  23.8143  24.0913  25.1589  25.4976  25.5903  25.7732
    25.9714  26.0298  26.3795  26.5921  27.1075  27.3096  27.4963  27.9010

          k = 0.3366 0.1403 0.0000 (  4456 PWs)   bands (ev):

   -44.3152 -44.3142 -23.7403 -23.6745 -23.4781 -23.3017 -23.1264 -23.0827
   -15.3344 -15.3314 -15.3296 -15.3254 -15.3204 -15.3155  -3.8460  -3.6292
    -2.6635  -2.3709  -2.3325  -2.0985  -1.8604  -1.7471  -1.6272  -1.5651
    -1.5030  -1.3946  -1.3799  -1.3039  -1.2824  -1.2643  -0.3209  -0.0201
    17.9836  18.3192  18.4533  18.7027  18.8430  19.0531  19.1886  19.1914
    19.3550  19.4475  19.4860  19.7111  20.3162  20.3575  20.7098  21.1026
    21.1600  21.5873  22.0309  22.0455  22.6617  22.9574  23.2234  23.3635
    23.5185  23.5377  23.7671  24.0250  24.1738  24.8825  25.6538  25.8118
    26.1135  26.6596  26.8001  27.0631  27.5171  27.7954  28.1657  28.4091

          k = 0.3366 0.1403 0.1202 (  4441 PWs)   bands (ev):

   -44.3139 -44.3138 -23.7201 -23.6639 -23.4806 -23.3029 -23.1268 -23.1151
   -15.3297 -15.3280 -15.3256 -15.3248 -15.3172 -15.3168  -3.6958  -3.6212
    -2.6767  -2.3273  -2.3071  -2.0977  -1.9378  -1.6840  -1.6672  -1.5255
    -1.5144  -1.4748  -1.3149  -1.3047  -1.2844  -1.2794  -0.3211  -0.2432
    18.0595  18.2648  18.5745  18.7195  18.9039  19.0264  19.1038  19.1298
    19.3170  19.3563  19.4089  19.4771  20.5221  20.7425  20.8953  21.1976
    21.2475  21.7046  21.8885  22.2253  22.7197  23.0366  23.0994  23.4244
    23.4332  23.8054  23.8261  23.9756  24.2206  24.8820  25.3519  25.5441
    26.3675  26.6818  26.8187  27.0316  27.3894  27.6411  27.7980  28.0736

          k = 0.3366 0.1403 0.2404 (  4452 PWs)   bands (ev):

   -44.3147 -44.3145 -23.6896 -23.6111 -23.4840 -23.3071 -23.2035 -23.1270
   -15.3302 -15.3278 -15.3252 -15.3240 -15.3192 -15.3170  -3.6302  -3.2419
    -2.6953  -2.2606  -2.2280  -2.1162  -1.9962  -1.7040  -1.6802  -1.5748
    -1.5329  -1.4630  -1.3462  -1.2986  -1.2836  -1.2577  -0.8308  -0.3219
    18.1565  18.2134  18.4948  18.6122  18.8200  18.9964  19.0759  19.2074
    19.2579  19.3600  19.4636  19.5546  20.6689  20.9171  21.0644  21.4512
    21.9264  21.9920  22.0588  22.3967  22.6517  22.8403  23.2338  23.3230
    23.4263  23.7738  23.8752  24.0670  24.7553  24.9148  25.2171  25.4241
    26.3289  26.5050  26.6150  27.0421  27.1229  27.2851  27.4846  27.9452

          k = 0.3366 0.1403 0.3606 (  4465 PWs)   bands (ev):

   -44.3155 -44.3155 -23.6772 -23.5382 -23.4539 -23.3459 -23.2900 -23.1275
   -15.3307 -15.3297 -15.3293 -15.3246 -15.3189 -15.3138  -3.6277  -2.7396
    -2.5605  -2.1962  -2.1779  -2.1616  -1.9423  -1.7775  -1.7479  -1.6935
    -1.5993  -1.4918  -1.4138  -1.3626  -1.2792  -1.2708  -1.2432  -0.3228
    18.0797  18.1310  18.2369  18.6828  18.8387  18.9842  19.1474  19.2149
    19.2602  19.5160  19.6806  19.8339  20.5718  20.7987  21.0581  21.3784
    21.7062  22.5166  22.5527  22.8078  22.8790  23.0375  23.2212  23.3613
    23.4781  23.7071  23.9401  24.1470  24.6326  25.1887  25.6647  25.7099
    26.0572  26.2207  26.4586  26.5263  26.8384  27.1500  27.1981  27.7497

          k = 0.3366 0.2805 0.0000 (  4458 PWs)   bands (ev):

   -44.3152 -44.3148 -23.7213 -23.5911 -23.4766 -23.3108 -23.2365 -23.0824
   -15.3314 -15.3302 -15.3293 -15.3244 -15.3195 -15.3154  -3.8409  -3.0493
    -2.6831  -2.2946  -2.2015  -2.1413  -1.8678  -1.8230  -1.7229  -1.6018
    -1.5397  -1.4477  -1.3544  -1.2867  -1.2503  -1.2195  -1.0701  -0.0201
    18.0424  18.1342  18.2246  18.5635  18.7396  19.0642  19.2892  19.3387
    19.5278  19.6423  19.6711  19.7190  20.1608  20.4624  20.7645  21.2647
    21.8121  22.2674  22.4487  22.5027  22.6006  22.8428  23.1342  23.2033
    23.3375  23.4745  23.7056  23.7678  25.3217  25.3323  25.4731  25.4805
    26.1695  26.4248  26.4972  27.2019  27.2518  27.4341  27.7097  27.8494

          k = 0.3366 0.2805 0.1202 (  4459 PWs)   bands (ev):

   -44.3155 -44.3147 -23.6936 -23.5853 -23.4805 -23.3107 -23.2389 -23.1156
   -15.3298 -15.3290 -15.3288 -15.3245 -15.3190 -15.3163  -3.6845  -3.0456
    -2.6938  -2.2495  -2.2023  -2.1383  -1.9688  -1.7274  -1.7145  -1.5896
    -1.5376  -1.4644  -1.3602  -1.2911  -1.2744  -1.2443  -1.0666  -0.2447
    18.1319  18.1536  18.3558  18.5983  18.8102  19.0133  19.1777  19.2596
    19.2799  19.4465  19.5440  19.6498  20.5451  20.8074  20.9825  21.3873
    21.9010  22.2048  22.3978  22.5083  22.7357  22.8767  23.2169  23.2752
    23.3978  23.5627  23.8310  23.9511  24.9342  25.0837  25.3460  25.5554
    26.2498  26.4500  26.5193  26.9466  27.1400  27.2423  27.5411  27.7219

          k = 0.3366 0.2805 0.2404 (  4461 PWs)   bands (ev):

   -44.3157 -44.3149 -23.6202 -23.5654 -23.4903 -23.3107 -23.2451 -23.2059
   -15.3295 -15.3287 -15.3249 -15.3213 -15.3187 -15.3176  -3.2402  -3.0373
    -2.7080  -2.2300  -2.1913  -2.0894  -2.0208  -1.7122  -1.6306  -1.5983
    -1.5581  -1.4599  -1.3786  -1.3278  -1.3056  -1.2958  -1.0626  -0.8300
    18.2604  18.3136  18.5810  18.6089  18.7445  18.8311  18.9333  19.0791
    19.1552  19.2540  19.4996  19.8260  20.9742  21.1021  21.7787  21.8441
    21.9074  22.1102  22.3721  22.4119  22.5886  22.6805  23.2216  23.2937
    23.9588  24.1336  24.2155  24.3989  24.5159  24.7785  25.2046  25.3561
    26.2844  26.4613  26.5121  26.6297  26.7358  27.0647  27.3015  27.5790

          k = 0.3366 0.2805 0.3606 (  4462 PWs)   bands (ev):

   -44.3158 -44.3149 -23.5712 -23.5165 -23.4671 -23.3420 -23.3038 -23.2476
   -15.3268 -15.3255 -15.3237 -15.3219 -15.3192 -15.3172  -3.0343  -2.7239
    -2.5721  -2.2401  -2.2375  -2.0424  -1.9496  -1.7530  -1.7120  -1.6123
    -1.5708  -1.4942  -1.4181  -1.3849  -1.3443  -1.3394  -1.3228  -1.0629
    18.2934  18.3677  18.5400  18.6062  18.7129  18.8245  18.9079  18.9986
    19.0456  19.1357  19.8800  20.1009  21.0072  21.0618  21.7508  21.7954
    21.9808  22.1674  22.2953  22.6121  22.7888  23.1418  23.3284  23.5956
    23.9591  24.0387  24.3499  24.6123  24.6790  25.1760  25.3543  25.4611
    26.1870  26.3416  26.4397  26.5582  26.7230  26.8180  27.0293  27.1905

          k = 0.3366-0.4208 0.0000 (  4466 PWs)   bands (ev):

   -44.3156 -44.3156 -23.7149 -23.5363 -23.4051 -23.3977 -23.2901 -23.0822
   -15.3327 -15.3322 -15.3318 -15.3281 -15.3159 -15.3117  -3.8386  -2.7287
    -2.3476  -2.2439  -2.1395  -2.0663  -2.0128  -1.8469  -1.8420  -1.8134
    -1.6403  -1.4801  -1.4396  -1.3636  -1.2504  -1.2405  -1.2045  -0.0217
    17.9764  17.9917  18.0589  18.7107  18.7288  19.0391  19.3961  19.4167
    19.6663  19.7643  19.7785  19.9057  20.0492  20.1845  21.1154  21.1778
    21.5273  22.3953  22.5862  22.6083  22.8659  22.9508  23.0668  23.1416
    23.5068  23.7688  23.8467  24.9779  25.0592  25.1138  25.4592  25.5121
    25.9082  25.9299  26.5045  26.5268  27.0798  27.3924  27.4578  27.8441

          k = 0.3366-0.4208 0.1202 (  4458 PWs)   bands (ev):

   -44.3151 -44.3150 -23.6859 -23.5314 -23.4057 -23.3994 -23.2940 -23.1157
   -15.3309 -15.3309 -15.3286 -15.3253 -15.3148 -15.3114  -3.6827  -2.7279
    -2.3353  -2.2419  -2.1496  -2.0635  -2.0517  -1.8721  -1.7962  -1.7592
    -1.6092  -1.4956  -1.4316  -1.3694  -1.2702  -1.2604  -1.2323  -0.2461
    18.0373  18.0776  18.1716  18.7471  18.7756  19.0271  19.1828  19.2753
    19.3112  19.5856  19.7672  19.8621  20.4759  20.6091  21.0804  21.2881
    21.6320  22.5167  22.7794  22.7900  22.9007  22.9779  23.0857  23.2611
    23.5273  23.7941  23.9039  24.5579  24.8766  25.0942  25.4054  25.6757
    25.8767  26.1940  26.4789  26.5197  26.8016  27.2520  27.2744  27.6761

          k = 0.3366-0.4208 0.2404 (  4470 PWs)   bands (ev):

   -44.3159 -44.3158 -23.6039 -23.5193 -23.4071 -23.4041 -23.3029 -23.2082
   -15.3285 -15.3274 -15.3260 -15.3259 -15.3182 -15.3166  -3.2357  -2.7227
    -2.3084  -2.2587  -2.1839  -2.1488  -1.9724  -1.8612  -1.7372  -1.6772
    -1.5550  -1.5279  -1.4202  -1.3935  -1.3249  -1.3190  -1.3062  -0.8309
    18.2195  18.2827  18.4300  18.6729  18.7400  18.9169  18.9758  18.9964
    19.0957  19.2202  19.9348  19.9624  20.8725  21.0414  21.5775  21.7204
    21.8943  22.2615  22.2711  22.6529  22.8361  23.0741  23.5723  23.7514
    23.8253  23.9516  24.2296  24.3113  24.9008  25.2091  25.4411  25.5107
    25.9001  25.9398  26.3455  26.6599  26.8079  27.0179  27.0229  27.4582

          k = 0.3366-0.4208 0.3606 (  4470 PWs)   bands (ev):

   -44.3156 -44.3156 -23.5081 -23.4841 -23.4089 -23.4084 -23.3361 -23.3104
   -15.3265 -15.3263 -15.3220 -15.3220 -15.3187 -15.3184  -2.7169  -2.5754
    -2.2921  -2.2831  -2.2029  -2.1973  -1.9435  -1.8816  -1.6706  -1.6413
    -1.5565  -1.5440  -1.4400  -1.4285  -1.4084  -1.3927  -1.3884  -1.3569
    18.4153  18.4416  18.5815  18.5956  18.7102  18.7542  18.8824  18.8936
    18.9502  18.9647  20.3457  20.3477  21.0919  21.0946  21.6097  21.7003
    21.7139  21.7430  22.6902  22.7568  23.1425  23.1791  23.6049  23.6169
    23.8753  24.1307  24.8383  24.9554  25.1143  25.3207  25.4714  25.5354
    25.9467  25.9489  26.3944  26.6576  26.6613  26.8288  26.8554  26.9717

     the Fermi energy is    24.5648 ev

!    total energy              =   -1065.20390160 Ry
     Harris-Foulkes estimate   =   -1065.20390184 Ry
     estimated scf accuracy    <       0.00000026 Ry

     The total energy is the sum of the following terms:

     one-electron contribution =     -21.81887547 Ry
     hartree contribution      =     106.26925126 Ry
     xc contribution           =    -119.40200869 Ry
     ewald contribution        =   -1029.80548868 Ry
     smearing contrib. (-TS)   =      -0.44678002 Ry

     convergence has been achieved in  17 iterations

     Forces acting on atoms (Ry/au):

     atom    1 type  1   force =     0.00000000    0.00000000    0.00000000
     atom    2 type  1   force =     0.00000000    0.00000000    0.00000000
     atom    3 type  1   force =     0.00000000    0.00000000    0.00000000
     atom    4 type  1   force =     0.00000000    0.00000000    0.00000000
     atom    5 type  1   force =     0.00000000    0.00000000    0.00000000
     atom    6 type  1   force =     0.00000000    0.00000000    0.00000000
     atom    7 type  2   force =     0.00000000    0.00000000    0.00000000
     atom    8 type  2   force =     0.00000000    0.00000000    0.00000000

     Total force =     0.000000     Total SCF correction =     0.000000


     entering subroutine stress ...

          total   stress  (Ry/bohr**3)                   (kbar)     P=  202.47
   0.00137634   0.00000000   0.00000000        202.47      0.00      0.00
   0.00000000   0.00137634   0.00000000          0.00    202.47      0.00
   0.00000000   0.00000000   0.00137634          0.00      0.00    202.47


     Writing output data file Prototype-La-cP8-Cr3Si.save
 
     init_run     :      6.75s CPU      8.69s WALL (       2 calls)
     electrons    :   1012.31s CPU   1181.99s WALL (       5 calls)
     update_pot   :      1.18s CPU      1.20s WALL (       3 calls)
     forces       :      4.06s CPU      4.37s WALL (       5 calls)
     stress       :     10.59s CPU     11.01s WALL (       5 calls)

     Called by init_run:
     wfcinit      :      6.24s CPU      7.98s WALL (       2 calls)
     potinit      :      0.22s CPU      0.23s WALL (       2 calls)

     Called by electrons:
     c_bands      :    968.84s CPU   1122.92s WALL (      55 calls)
     sum_band     :     43.14s CPU     55.11s WALL (      55 calls)
     v_of_rho     :      0.07s CPU      0.08s WALL (      60 calls)
     mix_rho      :      0.07s CPU      0.08s WALL (      55 calls)

     Called by c_bands:
     init_us_2    :      2.61s CPU      3.49s WALL (    5856 calls)
     ccgdiagg     :    845.42s CPU    958.13s WALL (    2839 calls)
     wfcrot       :    126.86s CPU    164.93s WALL (    2887 calls)

     Called by *cgdiagg:
     h_psi        :    685.69s CPU    816.19s WALL (  936031 calls)
     cdiaghg      :      5.23s CPU      5.60s WALL (    2887 calls)

     Called by h_psi:
     add_vuspsi   :     63.59s CPU     84.34s WALL (  936031 calls)

     General routines
     calbec       :    233.24s CPU    231.25s WALL ( 1869655 calls)
     fft          :      0.10s CPU      0.28s WALL (     263 calls)
     fftw         :    506.93s CPU    598.17s WALL ( 2472096 calls)
     davcio       :      1.91s CPU      6.76s WALL (    8496 calls)
 
     Parallel routines
     fft_scatter  :    231.26s CPU    262.36s WALL ( 2472359 calls)
 
     PWSCF        : 17m15.53s CPU    20m 9.83s WALL

 
   This run was terminated on:  17:53: 6  22Mar2018            

=------------------------------------------------------------------------------=
   JOB DONE.
=------------------------------------------------------------------------------=
