
     Program PWSCF v.5.0.2 starts on 22Mar2018 at 22:45:38 

     This program is part of the open-source Quantum ESPRESSO suite
     for quantum simulation of materials; please cite
         "P. Giannozzi et al., J. Phys.:Condens. Matter 21 395502 (2009);
          URL http://www.quantum-espresso.org", 
     in publications or presentations arising from this work. More details at
     http://www.quantum-espresso.org/quote.php

     Parallel version (MPI), running on     4 processors
     R & G space division:  proc/nbgrp/npool/nimage =       4

     Current dimensions of program PWSCF are:
     Max number of different atomic species (ntypx) = 10
     Max number of k-points (npk) =  40000
     Max angular momentum in pseudopotentials (lmaxx) =  3
     Waiting for input...
     Reading input from standard input

     Subspace diagonalization in iterative solution of the eigenvalue problem:
     a serial algorithm will be used

 
     Parallelization info
     --------------------
     sticks:   dense  smooth     PW     G-vecs:    dense   smooth      PW
     Min          93      93     30                 1717     1717     310
     Max          94      94     31                 1720     1720     313
     Sum         373     373    121                 6871     6871    1247
 


     bravais-lattice index     =            0
     lattice parameter (alat)  =       5.4125  a.u.
     unit-cell volume          =     202.7222 (a.u.)^3
     number of atoms/cell      =            2
     number of atomic types    =            2
     number of electrons       =        36.00
     number of Kohn-Sham states=           22
     kinetic-energy cutoff     =      40.0000  Ry
     charge density cutoff     =     160.0000  Ry
     convergence threshold     =      1.0E-04
     mixing beta               =       0.7000
     number of iterations used =            8  plain     mixing
     Exchange-correlation      = SLA-PZ-NOGX-NOGC ( 1 1 0 0 0)
     EXX-fraction              =        0.00
     nstep                     =           50


     celldm(1)=   5.412493  celldm(2)=   0.000000  celldm(3)=   0.000000
     celldm(4)=   0.000000  celldm(5)=   0.000000  celldm(6)=   0.000000

     crystal axes: (cart. coord. in units of alat)
               a(1) = (   1.000000   0.000000   0.000000 )  
               a(2) = (   0.000000   1.000000   0.000000 )  
               a(3) = (   0.000000   0.000000   1.278525 )  

     reciprocal axes: (cart. coord. in units 2 pi/alat)
               b(1) = (  1.000000  0.000000  0.000000 )  
               b(2) = (  0.000000  1.000000  0.000000 )  
               b(3) = (  0.000000  0.000000  0.782151 )  


     PseudoPot. # 1 for Er read from file:
     /home/cwx6513/pp.La/Er.UPF
     MD5 check sum: e152ae21b84514339d8526f066caf99b
     Pseudo is Norm-conserving, Zval = 22.0
     Generated in analytical, separable form
     Using radial grid of 1267 points,  6 beta functions with: 
                l(1) =   0
                l(2) =   0
                l(3) =   1
                l(4) =   1
                l(5) =   2
                l(6) =   3

     PseudoPot. # 2 for Nd read from file:
     /home/cwx6513/pp.La/Nd.UPF
     MD5 check sum: c66c5b6abe7b5840ced9b1e244e3bed6
     Pseudo is Norm-conserving, Zval = 14.0
     Generated in analytical, separable form
     Using radial grid of 1257 points,  6 beta functions with: 
                l(1) =   0
                l(2) =   0
                l(3) =   1
                l(4) =   1
                l(5) =   2
                l(6) =   3

     atomic species   valence    mass     pseudopotential
        Cu            22.00    63.54600     Er( 1.00)
        Au            14.00   196.96600     Nd( 1.00)

     16 Sym. Ops., with inversion, found



   Cartesian axes

     site n.     atom                  positions (alat units)
         1           Cu  tau(   1) = (   0.5000000   0.5000000   0.6392626  )
         2           Au  tau(   2) = (   0.0000000   0.0000000   0.0000000  )

     number of k points=   100  gaussian smearing, width (Ry)=  0.1000

     Number of k-points >= 100: set verbosity='high' to print them.

     Dense  grid:     6871 G-vectors     FFT dimensions: (  24,  24,  27)

     Largest allocated arrays     est. size (Mb)     dimensions
        Kohn-Sham Wavefunctions         0.08 Mb     (    228,   22)
        NL pseudopotentials             0.14 Mb     (    228,   40)
        Each V/rho on FFT grid          0.06 Mb     (   4032)
        Each G-vector array             0.01 Mb     (   1720)
        G-vector shells                 0.01 Mb     (   1720)
     Largest temporary arrays     est. size (Mb)     dimensions
        Each subspace H/S matrix        0.01 Mb     (  22,  22)
        Each <psi_i|beta_j> matrix      0.01 Mb     (     40,   22)
        Arrays for rho mixing           0.49 Mb     (   4032,   8)

     Initial potential from superposition of free atoms

     Starting from uniform charge
     Starting wfc are    0 randomized atomic wfcs

     total cpu time spent up to now is        1.6 secs

     Self-consistent Calculation

     iteration #  1     ecut=    40.00 Ry     beta=0.70
     CG style diagonalization
     c_bands:  1 eigenvalues not converged
     c_bands:  1 eigenvalues not converged
     c_bands:  1 eigenvalues not converged
     c_bands:  1 eigenvalues not converged
     c_bands:  1 eigenvalues not converged
     c_bands:  1 eigenvalues not converged
     c_bands:  1 eigenvalues not converged
     c_bands:  1 eigenvalues not converged
     c_bands:  2 eigenvalues not converged
     ethr =  1.00E-02,  avg # of iterations = 13.0

     total cpu time spent up to now is        8.7 secs

     total energy              =    -237.86729548 Ry
     Harris-Foulkes estimate   =    -567.35800598 Ry
     estimated scf accuracy    <     398.01630774 Ry

     iteration #  2     ecut=    40.00 Ry     beta=0.70
     CG style diagonalization
     c_bands:  1 eigenvalues not converged
     c_bands:  1 eigenvalues not converged
     c_bands:  2 eigenvalues not converged
     c_bands:  1 eigenvalues not converged
     c_bands:  2 eigenvalues not converged
     c_bands:  1 eigenvalues not converged
     c_bands:  3 eigenvalues not converged
     c_bands:  1 eigenvalues not converged
     c_bands:  1 eigenvalues not converged
     c_bands:  1 eigenvalues not converged
     c_bands:  1 eigenvalues not converged
     c_bands:  1 eigenvalues not converged
     c_bands:  1 eigenvalues not converged
     c_bands:  1 eigenvalues not converged
     c_bands:  2 eigenvalues not converged
     c_bands:  1 eigenvalues not converged
     c_bands:  1 eigenvalues not converged
     c_bands:  1 eigenvalues not converged
     c_bands:  2 eigenvalues not converged
     c_bands:  1 eigenvalues not converged
     c_bands:  1 eigenvalues not converged
     c_bands:  1 eigenvalues not converged
     c_bands:  1 eigenvalues not converged
     c_bands:  2 eigenvalues not converged
     c_bands:  1 eigenvalues not converged
     c_bands:  2 eigenvalues not converged
     c_bands:  1 eigenvalues not converged
     c_bands:  1 eigenvalues not converged
     c_bands:  1 eigenvalues not converged
     c_bands:  1 eigenvalues not converged
     c_bands:  1 eigenvalues not converged
     c_bands:  1 eigenvalues not converged
     c_bands:  1 eigenvalues not converged
     c_bands:  1 eigenvalues not converged
     c_bands:  1 eigenvalues not converged
     c_bands:  1 eigenvalues not converged
     c_bands:  1 eigenvalues not converged
     c_bands:  2 eigenvalues not converged
     c_bands:  1 eigenvalues not converged
     c_bands:  2 eigenvalues not converged
     c_bands:  1 eigenvalues not converged
     c_bands:  2 eigenvalues not converged
     c_bands:  2 eigenvalues not converged
     c_bands:  2 eigenvalues not converged
     c_bands:  2 eigenvalues not converged
     c_bands:  1 eigenvalues not converged
     c_bands:  1 eigenvalues not converged
     ethr =  1.00E-02,  avg # of iterations = 12.8

     total cpu time spent up to now is       14.6 secs

     total energy              =    -327.52845129 Ry
     Harris-Foulkes estimate   =    -611.06434088 Ry
     estimated scf accuracy    <     566.98624005 Ry

     iteration #  3     ecut=    40.00 Ry     beta=0.70
     CG style diagonalization
     c_bands:  1 eigenvalues not converged
     c_bands:  1 eigenvalues not converged
     ethr =  1.00E-02,  avg # of iterations = 11.3

     total cpu time spent up to now is       19.8 secs

     total energy              =    -436.77647323 Ry
     Harris-Foulkes estimate   =    -445.86670387 Ry
     estimated scf accuracy    <      15.83552688 Ry

     iteration #  4     ecut=    40.00 Ry     beta=0.70
     CG style diagonalization
     ethr =  1.00E-02,  avg # of iterations =  4.3

     total cpu time spent up to now is       22.3 secs

     total energy              =    -438.93591583 Ry
     Harris-Foulkes estimate   =    -439.40640558 Ry
     estimated scf accuracy    <       0.99883596 Ry

     iteration #  5     ecut=    40.00 Ry     beta=0.70
     CG style diagonalization
     ethr =  2.77E-03,  avg # of iterations =  3.6

     negative rho (up, down):  0.161E-05 0.000E+00

     total cpu time spent up to now is       23.8 secs

     total energy              =    -438.97200886 Ry
     Harris-Foulkes estimate   =    -439.08772000 Ry
     estimated scf accuracy    <       0.16808983 Ry

     iteration #  6     ecut=    40.00 Ry     beta=0.70
     CG style diagonalization
     c_bands:  1 eigenvalues not converged
     ethr =  4.67E-04,  avg # of iterations =  4.4

     total cpu time spent up to now is       25.6 secs

     total energy              =    -439.03291756 Ry
     Harris-Foulkes estimate   =    -439.05720177 Ry
     estimated scf accuracy    <       0.03942881 Ry

     iteration #  7     ecut=    40.00 Ry     beta=0.70
     CG style diagonalization
     ethr =  1.10E-04,  avg # of iterations =  3.9

     total cpu time spent up to now is       27.3 secs

     total energy              =    -439.03887276 Ry
     Harris-Foulkes estimate   =    -439.03983797 Ry
     estimated scf accuracy    <       0.00121605 Ry

     iteration #  8     ecut=    40.00 Ry     beta=0.70
     CG style diagonalization
     c_bands:  1 eigenvalues not converged
     c_bands:  1 eigenvalues not converged
     c_bands:  1 eigenvalues not converged
     c_bands:  1 eigenvalues not converged
     c_bands:  1 eigenvalues not converged
     c_bands:  1 eigenvalues not converged
     c_bands:  1 eigenvalues not converged
     c_bands:  1 eigenvalues not converged
     ethr =  3.38E-06,  avg # of iterations =  5.1

     total cpu time spent up to now is       29.4 secs

     total energy              =    -439.03967532 Ry
     Harris-Foulkes estimate   =    -439.04002470 Ry
     estimated scf accuracy    <       0.00064780 Ry

     iteration #  9     ecut=    40.00 Ry     beta=0.70
     CG style diagonalization
     ethr =  1.80E-06,  avg # of iterations =  3.5

     total cpu time spent up to now is       30.9 secs

     End of self-consistent calculation

     Number of k-points >= 100: set verbosity='high' to print the bands.

     the Fermi energy is    35.9446 ev

!    total energy              =    -439.03970036 Ry
     Harris-Foulkes estimate   =    -439.03975375 Ry
     estimated scf accuracy    <       0.00006287 Ry

     The total energy is the sum of the following terms:

     one-electron contribution =     -41.26193501 Ry
     hartree contribution      =      56.30887339 Ry
     xc contribution           =     -42.19047557 Ry
     ewald contribution        =    -411.81703379 Ry
     smearing contrib. (-TS)   =      -0.07912939 Ry

     convergence has been achieved in   9 iterations

     Forces acting on atoms (Ry/au):

     atom    1 type  1   force =     0.00000000    0.00000000    0.00000000
     atom    2 type  2   force =     0.00000000    0.00000000    0.00000000

     Total force =     0.000000     Total SCF correction =     0.000000


     entering subroutine stress ...

          total   stress  (Ry/bohr**3)                   (kbar)     P= 1526.10
   0.01097028   0.00000000   0.00000000       1613.78      0.00      0.00
   0.00000000   0.01097028   0.00000000          0.00   1613.78      0.00
   0.00000000   0.00000000   0.00918214          0.00      0.00   1350.74


     BFGS Geometry Optimization

     number of scf cycles    =   1
     number of bfgs steps    =   0

     enthalpy new            =    -439.0397003617 Ry

     new trust radius        =       0.5000000000 bohr
     new conv_thr            =       0.0001000000 Ry

     new unit-cell volume =    321.33669 a.u.^3 (    47.61718 Ang^3 )

CELL_PARAMETERS (alat=  5.41249258)
   1.175585808   0.000000000   0.000000000
   0.000000000   1.175585808   0.000000000
   0.000000000   0.000000000   1.466424464

ATOMIC_POSITIONS (crystal)
Cu       0.500000000   0.500000000   0.500000000
Au       0.000000000   0.000000000   0.000000000



     Writing output data file Prototype-La-tP2-AuCu.save
     NEW-OLD atomic charge density approx. for the potential
     NEW k-points: (use verbosity='high' to print them)

     total cpu time spent up to now is       32.3 secs

     Self-consistent Calculation

     iteration #  1     ecut=    40.00 Ry     beta=0.70
     CG style diagonalization
     c_bands:  1 eigenvalues not converged
     c_bands:  3 eigenvalues not converged
     c_bands:  2 eigenvalues not converged
     c_bands:  2 eigenvalues not converged
     c_bands:  1 eigenvalues not converged
     c_bands:  3 eigenvalues not converged
     c_bands:  5 eigenvalues not converged
     c_bands:  5 eigenvalues not converged
     c_bands:  4 eigenvalues not converged
     c_bands:  1 eigenvalues not converged
     c_bands:  5 eigenvalues not converged
     c_bands:  5 eigenvalues not converged
     c_bands:  5 eigenvalues not converged
     c_bands:  5 eigenvalues not converged
     c_bands:  5 eigenvalues not converged
     c_bands:  2 eigenvalues not converged
     c_bands:  2 eigenvalues not converged
     c_bands:  3 eigenvalues not converged
     c_bands:  2 eigenvalues not converged
     c_bands:  4 eigenvalues not converged
     c_bands:  3 eigenvalues not converged
     c_bands:  5 eigenvalues not converged
     c_bands:  5 eigenvalues not converged
     c_bands:  3 eigenvalues not converged
     c_bands:  2 eigenvalues not converged
     c_bands:  5 eigenvalues not converged
     c_bands:  1 eigenvalues not converged
     c_bands:  1 eigenvalues not converged
     c_bands:  4 eigenvalues not converged
     c_bands:  1 eigenvalues not converged
     c_bands:  1 eigenvalues not converged
     c_bands:  5 eigenvalues not converged
     c_bands:  4 eigenvalues not converged
     c_bands:  4 eigenvalues not converged
     c_bands:  3 eigenvalues not converged
     c_bands:  5 eigenvalues not converged
     c_bands:  2 eigenvalues not converged
     c_bands:  5 eigenvalues not converged
     c_bands:  1 eigenvalues not converged
     c_bands:  5 eigenvalues not converged
     c_bands:  3 eigenvalues not converged
     c_bands:  5 eigenvalues not converged
     c_bands:  4 eigenvalues not converged
     c_bands:  5 eigenvalues not converged
     c_bands:  1 eigenvalues not converged
     c_bands:  4 eigenvalues not converged
     c_bands:  5 eigenvalues not converged
     c_bands:  5 eigenvalues not converged
     ethr =  1.00E-06,  avg # of iterations = 19.7

     total cpu time spent up to now is       40.1 secs

     total energy              =    -433.20335332 Ry
     Harris-Foulkes estimate   =    -447.96593138 Ry
     estimated scf accuracy    <      18.85765432 Ry

     iteration #  2     ecut=    40.00 Ry     beta=0.70
     CG style diagonalization
     ethr =  1.00E-02,  avg # of iterations =  4.2

     total cpu time spent up to now is       42.2 secs

     total energy              =    -438.46287661 Ry
     Harris-Foulkes estimate   =    -439.66059928 Ry
     estimated scf accuracy    <       1.73583926 Ry

     iteration #  3     ecut=    40.00 Ry     beta=0.70
     CG style diagonalization
     ethr =  4.82E-03,  avg # of iterations =  3.6

     total cpu time spent up to now is       43.8 secs

     total energy              =    -438.92064001 Ry
     Harris-Foulkes estimate   =    -438.96206608 Ry
     estimated scf accuracy    <       0.10280070 Ry

     iteration #  4     ecut=    40.00 Ry     beta=0.70
     CG style diagonalization
     ethr =  2.86E-04,  avg # of iterations =  3.6

     total cpu time spent up to now is       45.3 secs

     total energy              =    -438.93169936 Ry
     Harris-Foulkes estimate   =    -438.93889612 Ry
     estimated scf accuracy    <       0.01229257 Ry

     iteration #  5     ecut=    40.00 Ry     beta=0.70
     CG style diagonalization
     ethr =  3.41E-05,  avg # of iterations =  3.9

     total cpu time spent up to now is       47.1 secs

     total energy              =    -438.93600730 Ry
     Harris-Foulkes estimate   =    -438.93648476 Ry
     estimated scf accuracy    <       0.00102618 Ry

     iteration #  6     ecut=    40.00 Ry     beta=0.70
     CG style diagonalization
     c_bands:  1 eigenvalues not converged
     ethr =  2.85E-06,  avg # of iterations =  3.7

     total cpu time spent up to now is       48.7 secs

     total energy              =    -438.93603776 Ry
     Harris-Foulkes estimate   =    -438.93620419 Ry
     estimated scf accuracy    <       0.00027820 Ry

     iteration #  7     ecut=    40.00 Ry     beta=0.70
     CG style diagonalization
     ethr =  7.73E-07,  avg # of iterations =  3.7

     total cpu time spent up to now is       50.2 secs

     End of self-consistent calculation

     Number of k-points >= 100: set verbosity='high' to print the bands.

     the Fermi energy is    21.4108 ev

!    total energy              =    -438.93612364 Ry
     Harris-Foulkes estimate   =    -438.93616089 Ry
     estimated scf accuracy    <       0.00004017 Ry

     The total energy is the sum of the following terms:

     one-electron contribution =    -124.66953816 Ry
     hartree contribution      =      79.78944365 Ry
     xc contribution           =     -40.62986859 Ry
     ewald contribution        =    -353.30214381 Ry
     smearing contrib. (-TS)   =      -0.12401673 Ry

     convergence has been achieved in   7 iterations

     Forces acting on atoms (Ry/au):

     atom    1 type  1   force =     0.00000000    0.00000000    0.00000000
     atom    2 type  2   force =     0.00000000    0.00000000    0.00000000

     Total force =     0.000000     Total SCF correction =     0.000000


     entering subroutine stress ...

          total   stress  (Ry/bohr**3)                   (kbar)     P=-1062.93
  -0.00725703   0.00000000   0.00000000      -1067.55      0.00      0.00
   0.00000000  -0.00725703   0.00000000          0.00  -1067.55      0.00
   0.00000000   0.00000000  -0.00716286          0.00      0.00  -1053.69


     number of scf cycles    =   2
     number of bfgs steps    =   1

     enthalpy old            =    -439.0397003617 Ry
     enthalpy new            =    -438.9361236350 Ry

     CASE: enthalpy_new > enthalpy_old

     new trust radius        =       0.2437956969 bohr

     trust_radius < trust_radius_min

     resetting bfgs history

     new conv_thr            =       0.0001000000 Ry

     new unit-cell volume =    310.52030 a.u.^3 (    46.01436 Ang^3 )

CELL_PARAMETERS (alat=  5.41249258)
   1.163951047   0.000000000   0.000000000
   0.000000000   1.163951047   0.000000000
   0.000000000   0.000000000   1.445535031

ATOMIC_POSITIONS (crystal)
Cu       0.500000000   0.500000000   0.500000000
Au       0.000000000   0.000000000   0.000000000



     Writing output data file Prototype-La-tP2-AuCu.save
     NEW-OLD atomic charge density approx. for the potential
     NEW k-points: (use verbosity='high' to print them)

     total cpu time spent up to now is       51.1 secs

     Self-consistent Calculation

     iteration #  1     ecut=    40.00 Ry     beta=0.70
     CG style diagonalization
     c_bands:  1 eigenvalues not converged
     c_bands:  1 eigenvalues not converged
     c_bands:  1 eigenvalues not converged
     c_bands:  1 eigenvalues not converged
     c_bands:  1 eigenvalues not converged
     ethr =  1.00E-06,  avg # of iterations =  7.3

     total cpu time spent up to now is       54.6 secs

     total energy              =    -438.96678441 Ry
     Harris-Foulkes estimate   =    -439.06979562 Ry
     estimated scf accuracy    <       0.12887535 Ry

     iteration #  2     ecut=    40.00 Ry     beta=0.70
     CG style diagonalization
     ethr =  3.58E-04,  avg # of iterations =  3.7

     total cpu time spent up to now is       56.2 secs

     total energy              =    -439.00459710 Ry
     Harris-Foulkes estimate   =    -439.02111961 Ry
     estimated scf accuracy    <       0.02392189 Ry

     iteration #  3     ecut=    40.00 Ry     beta=0.70
     CG style diagonalization
     ethr =  6.64E-05,  avg # of iterations =  3.6

     total cpu time spent up to now is       57.6 secs

     total energy              =    -439.01092449 Ry
     Harris-Foulkes estimate   =    -439.01277537 Ry
     estimated scf accuracy    <       0.00364718 Ry

     iteration #  4     ecut=    40.00 Ry     beta=0.70
     CG style diagonalization
     ethr =  1.01E-05,  avg # of iterations =  3.4

     total cpu time spent up to now is       59.1 secs

     End of self-consistent calculation

     Number of k-points >= 100: set verbosity='high' to print the bands.

     the Fermi energy is    22.2750 ev

!    total energy              =    -439.01165080 Ry
     Harris-Foulkes estimate   =    -439.01167745 Ry
     estimated scf accuracy    <       0.00003734 Ry

     The total energy is the sum of the following terms:

     one-electron contribution =    -118.70214064 Ry
     hartree contribution      =      77.90729605 Ry
     xc contribution           =     -40.72184152 Ry
     ewald contribution        =    -357.37539737 Ry
     smearing contrib. (-TS)   =      -0.11956733 Ry

     convergence has been achieved in   4 iterations

     Forces acting on atoms (Ry/au):

     atom    1 type  1   force =     0.00000000    0.00000000    0.00000000
     atom    2 type  2   force =     0.00000000    0.00000000    0.00000000

     Total force =     0.000000     Total SCF correction =     0.000000


     entering subroutine stress ...

          total   stress  (Ry/bohr**3)                   (kbar)     P= -979.04
  -0.00667587   0.00000000   0.00000000       -982.05      0.00      0.00
   0.00000000  -0.00667587   0.00000000          0.00   -982.05      0.00
   0.00000000   0.00000000  -0.00661435          0.00      0.00   -973.00


     number of scf cycles    =   3
     number of bfgs steps    =   1

     enthalpy old            =    -439.0397003617 Ry
     enthalpy new            =    -439.0116508037 Ry

     CASE: enthalpy_new > enthalpy_old

     new trust radius        =       0.2412536921 bohr

     trust_radius < trust_radius_min

     resetting bfgs history

     Message from routine bfgs:
     history already reset at previous step: stopping
     new conv_thr            =       0.0001000000 Ry

     new unit-cell volume =    311.09192 a.u.^3 (    46.09907 Ang^3 )

CELL_PARAMETERS (alat=  5.41249258)
   1.165131426   0.000000000   0.000000000
   0.000000000   1.165131426   0.000000000
   0.000000000   0.000000000   1.445263228

ATOMIC_POSITIONS (crystal)
Cu       0.500000000   0.500000000   0.500000000
Au       0.000000000   0.000000000   0.000000000



     Writing output data file Prototype-La-tP2-AuCu.save
     NEW-OLD atomic charge density approx. for the potential
     NEW k-points: (use verbosity='high' to print them)

     total cpu time spent up to now is       59.9 secs

     Self-consistent Calculation

     iteration #  1     ecut=    40.00 Ry     beta=0.70
     CG style diagonalization
     c_bands:  1 eigenvalues not converged
     c_bands:  1 eigenvalues not converged
     ethr =  1.00E-06,  avg # of iterations =  4.6

     total cpu time spent up to now is       61.8 secs

     total energy              =    -439.00764807 Ry
     Harris-Foulkes estimate   =    -439.00806354 Ry
     estimated scf accuracy    <       0.00051715 Ry

     iteration #  2     ecut=    40.00 Ry     beta=0.70
     CG style diagonalization
     ethr =  1.44E-06,  avg # of iterations =  3.7

     total cpu time spent up to now is       63.9 secs

     total energy              =    -439.00778593 Ry
     Harris-Foulkes estimate   =    -439.00789554 Ry
     estimated scf accuracy    <       0.00016451 Ry

     iteration #  3     ecut=    40.00 Ry     beta=0.70
     CG style diagonalization
     ethr =  4.57E-07,  avg # of iterations =  3.5

     total cpu time spent up to now is       65.3 secs

     End of self-consistent calculation

     Number of k-points >= 100: set verbosity='high' to print the bands.

     the Fermi energy is    22.2352 ev

!    total energy              =    -439.00782428 Ry
     Harris-Foulkes estimate   =    -439.00784261 Ry
     estimated scf accuracy    <       0.00002039 Ry

     The total energy is the sum of the following terms:

     one-electron contribution =    -119.03181482 Ry
     hartree contribution      =      78.01985774 Ry
     xc contribution           =     -40.71502660 Ry
     ewald contribution        =    -357.16117371 Ry
     smearing contrib. (-TS)   =      -0.11966689 Ry

     convergence has been achieved in   3 iterations

     Forces acting on atoms (Ry/au):

     atom    1 type  1   force =     0.00000000    0.00000000    0.00000000
     atom    2 type  2   force =     0.00000000    0.00000000    0.00000000

     Total force =     0.000000     Total SCF correction =     0.000000


     entering subroutine stress ...

          total   stress  (Ry/bohr**3)                   (kbar)     P= -988.54
  -0.00676940   0.00000000   0.00000000       -995.81      0.00      0.00
   0.00000000  -0.00676940   0.00000000          0.00   -995.81      0.00
   0.00000000   0.00000000  -0.00662106          0.00      0.00   -973.99


     The maximum number of steps has been reached.

     End of BFGS Geometry Optimization
Begin final coordinates
     new unit-cell volume =    311.09192 a.u.^3 (    46.09907 Ang^3 )

CELL_PARAMETERS (alat=  5.41249258)
   1.165131426   0.000000000   0.000000000
   0.000000000   1.165131426   0.000000000
   0.000000000   0.000000000   1.445263228

ATOMIC_POSITIONS (crystal)
Cu       0.500000000   0.500000000   0.500000000
Au       0.000000000   0.000000000   0.000000000
End final coordinates



     A final scf calculation at the relaxed structure.
     The G-vectors are recalculated for the final unit cell
     Results may differ from those at the preceding step.
 
     Parallelization info
     --------------------
     sticks:   dense  smooth     PW     G-vecs:    dense   smooth      PW
     Min         126     126     40                 2646     2646     458
     Max         127     127     41                 2649     2649     459
     Sum         505     505    161                10591    10591    1833
 


     bravais-lattice index     =            0
     lattice parameter (alat)  =       5.4125  a.u.
     unit-cell volume          =     311.0919 (a.u.)^3
     number of atoms/cell      =            2
     number of atomic types    =            2
     number of electrons       =        36.00
     number of Kohn-Sham states=           22
     kinetic-energy cutoff     =      40.0000  Ry
     charge density cutoff     =     160.0000  Ry
     convergence threshold     =      1.0E-04
     mixing beta               =       0.7000
     number of iterations used =            8  plain     mixing
     Exchange-correlation      = SLA-PZ-NOGX-NOGC ( 1 1 0 0 0)
     EXX-fraction              =        0.00

     celldm(1)=   5.412493  celldm(2)=   0.000000  celldm(3)=   0.000000
     celldm(4)=   0.000000  celldm(5)=   0.000000  celldm(6)=   0.000000

     crystal axes: (cart. coord. in units of alat)
               a(1) = (   1.165131   0.000000   0.000000 )  
               a(2) = (   0.000000   1.165131   0.000000 )  
               a(3) = (   0.000000   0.000000   1.445263 )  

     reciprocal axes: (cart. coord. in units 2 pi/alat)
               b(1) = (  0.858272  0.000000  0.000000 )  
               b(2) = (  0.000000  0.858272  0.000000 )  
               b(3) = (  0.000000  0.000000  0.691915 )  


     PseudoPot. # 1 for Er read from file:
     /home/cwx6513/pp.La/Er.UPF
     MD5 check sum: e152ae21b84514339d8526f066caf99b
     Pseudo is Norm-conserving, Zval = 22.0
     Generated in analytical, separable form
     Using radial grid of 1267 points,  6 beta functions with: 
                l(1) =   0
                l(2) =   0
                l(3) =   1
                l(4) =   1
                l(5) =   2
                l(6) =   3

     PseudoPot. # 2 for Nd read from file:
     /home/cwx6513/pp.La/Nd.UPF
     MD5 check sum: c66c5b6abe7b5840ced9b1e244e3bed6
     Pseudo is Norm-conserving, Zval = 14.0
     Generated in analytical, separable form
     Using radial grid of 1257 points,  6 beta functions with: 
                l(1) =   0
                l(2) =   0
                l(3) =   1
                l(4) =   1
                l(5) =   2
                l(6) =   3

     atomic species   valence    mass     pseudopotential
        Cu            22.00    63.54600     Er( 1.00)
        Au            14.00   196.96600     Nd( 1.00)

     16 Sym. Ops., with inversion, found



   Cartesian axes

     site n.     atom                  positions (alat units)
         1           Cu  tau(   1) = (   0.5825657   0.5825657   0.7226316  )
         2           Au  tau(   2) = (   0.0000000   0.0000000   0.0000000  )

     number of k points=   100  gaussian smearing, width (Ry)=  0.1000

     Number of k-points >= 100: set verbosity='high' to print them.

     Dense  grid:    10591 G-vectors     FFT dimensions: (  25,  25,  32)

     Largest allocated arrays     est. size (Mb)     dimensions
        Kohn-Sham Wavefunctions         0.12 Mb     (    345,   22)
        NL pseudopotentials             0.21 Mb     (    345,   40)
        Each V/rho on FFT grid          0.08 Mb     (   5000)
        Each G-vector array             0.02 Mb     (   2648)
        G-vector shells                 0.01 Mb     (    679)
     Largest temporary arrays     est. size (Mb)     dimensions
        Each subspace H/S matrix        0.01 Mb     (  22,  22)
        Each <psi_i|beta_j> matrix      0.01 Mb     (     40,   22)
        Arrays for rho mixing           0.61 Mb     (   5000,   8)

     Initial potential from superposition of free atoms

     Starting from uniform charge
     Starting wfc are    0 randomized atomic wfcs

     Writing output data file Prototype-La-tP2-AuCu.save

     total cpu time spent up to now is       66.8 secs

     Self-consistent Calculation

     iteration #  1     ecut=    40.00 Ry     beta=0.70
     CG style diagonalization
     c_bands:  5 eigenvalues not converged
     c_bands:  4 eigenvalues not converged
     c_bands:  3 eigenvalues not converged
     c_bands:  3 eigenvalues not converged
     c_bands:  1 eigenvalues not converged
     c_bands:  5 eigenvalues not converged
     c_bands:  3 eigenvalues not converged
     c_bands:  1 eigenvalues not converged
     c_bands:  1 eigenvalues not converged
     c_bands:  1 eigenvalues not converged
     c_bands:  1 eigenvalues not converged
     c_bands:  2 eigenvalues not converged
     c_bands:  2 eigenvalues not converged
     c_bands:  1 eigenvalues not converged
     ethr =  1.00E-06,  avg # of iterations = 42.1

     total cpu time spent up to now is       91.8 secs

     total energy              =    -221.71990616 Ry
     Harris-Foulkes estimate   =    -612.54322950 Ry
     estimated scf accuracy    <     470.58303013 Ry

     iteration #  2     ecut=    40.00 Ry     beta=0.70
     CG style diagonalization
     c_bands:  1 eigenvalues not converged
     c_bands:  1 eigenvalues not converged
     c_bands:  1 eigenvalues not converged
     c_bands:  1 eigenvalues not converged
     c_bands:  1 eigenvalues not converged
     c_bands:  2 eigenvalues not converged
     c_bands:  1 eigenvalues not converged
     c_bands:  1 eigenvalues not converged
     c_bands:  2 eigenvalues not converged
     c_bands:  1 eigenvalues not converged
     c_bands:  1 eigenvalues not converged
     c_bands:  1 eigenvalues not converged
     c_bands:  1 eigenvalues not converged
     c_bands:  1 eigenvalues not converged
     c_bands:  1 eigenvalues not converged
     c_bands:  2 eigenvalues not converged
     c_bands:  1 eigenvalues not converged
     c_bands:  1 eigenvalues not converged
     c_bands:  2 eigenvalues not converged
     c_bands:  2 eigenvalues not converged
     c_bands:  1 eigenvalues not converged
     c_bands:  1 eigenvalues not converged
     c_bands:  1 eigenvalues not converged
     c_bands:  1 eigenvalues not converged
     c_bands:  2 eigenvalues not converged
     c_bands:  2 eigenvalues not converged
     c_bands:  1 eigenvalues not converged
     c_bands:  1 eigenvalues not converged
     c_bands:  2 eigenvalues not converged
     c_bands:  2 eigenvalues not converged
     c_bands:  2 eigenvalues not converged
     c_bands:  2 eigenvalues not converged
     c_bands:  2 eigenvalues not converged
     c_bands:  3 eigenvalues not converged
     c_bands:  3 eigenvalues not converged
     c_bands:  2 eigenvalues not converged
     c_bands:  3 eigenvalues not converged
     c_bands:  1 eigenvalues not converged
     c_bands:  1 eigenvalues not converged
     c_bands:  1 eigenvalues not converged
     c_bands:  1 eigenvalues not converged
     c_bands:  1 eigenvalues not converged
     c_bands:  1 eigenvalues not converged
     c_bands:  1 eigenvalues not converged
     c_bands:  1 eigenvalues not converged
     c_bands:  4 eigenvalues not converged
     c_bands:  1 eigenvalues not converged
     c_bands:  2 eigenvalues not converged
     c_bands:  1 eigenvalues not converged
     c_bands:  4 eigenvalues not converged
     c_bands:  1 eigenvalues not converged
     c_bands:  1 eigenvalues not converged
     c_bands:  1 eigenvalues not converged
     c_bands:  1 eigenvalues not converged
     c_bands:  1 eigenvalues not converged
     c_bands:  2 eigenvalues not converged
     ethr =  1.00E-02,  avg # of iterations = 13.2

     total cpu time spent up to now is      100.9 secs

     total energy              =    -317.31467012 Ry
     Harris-Foulkes estimate   =    -642.84824661 Ry
     estimated scf accuracy    <     644.54615981 Ry

     iteration #  3     ecut=    40.00 Ry     beta=0.70
     CG style diagonalization
     c_bands:  1 eigenvalues not converged
     c_bands:  1 eigenvalues not converged
     ethr =  1.00E-02,  avg # of iterations = 11.7

     total cpu time spent up to now is      108.9 secs

     total energy              =    -436.51712253 Ry
     Harris-Foulkes estimate   =    -448.87449367 Ry
     estimated scf accuracy    <      21.55227454 Ry

     iteration #  4     ecut=    40.00 Ry     beta=0.70
     CG style diagonalization
     ethr =  1.00E-02,  avg # of iterations =  4.7

     total cpu time spent up to now is      112.0 secs

     total energy              =    -439.58547840 Ry
     Harris-Foulkes estimate   =    -440.12422725 Ry
     estimated scf accuracy    <       1.03676112 Ry

     iteration #  5     ecut=    40.00 Ry     beta=0.70
     CG style diagonalization
     ethr =  2.88E-03,  avg # of iterations =  3.8

     total cpu time spent up to now is      114.4 secs

     total energy              =    -439.69820696 Ry
     Harris-Foulkes estimate   =    -439.77962576 Ry
     estimated scf accuracy    <       0.13366519 Ry

     iteration #  6     ecut=    40.00 Ry     beta=0.70
     CG style diagonalization
     c_bands:  1 eigenvalues not converged
     ethr =  3.71E-04,  avg # of iterations =  4.5

     total cpu time spent up to now is      117.9 secs

     total energy              =    -439.74252798 Ry
     Harris-Foulkes estimate   =    -439.75792575 Ry
     estimated scf accuracy    <       0.02522104 Ry

     iteration #  7     ecut=    40.00 Ry     beta=0.70
     CG style diagonalization
     c_bands:  1 eigenvalues not converged
     c_bands:  1 eigenvalues not converged
     ethr =  7.01E-05,  avg # of iterations =  3.9

     total cpu time spent up to now is      120.4 secs

     total energy              =    -439.74689729 Ry
     Harris-Foulkes estimate   =    -439.74747557 Ry
     estimated scf accuracy    <       0.00088808 Ry

     iteration #  8     ecut=    40.00 Ry     beta=0.70
     CG style diagonalization
     c_bands:  1 eigenvalues not converged
     c_bands:  1 eigenvalues not converged
     c_bands:  1 eigenvalues not converged
     c_bands:  1 eigenvalues not converged
     c_bands:  1 eigenvalues not converged
     c_bands:  1 eigenvalues not converged
     c_bands:  1 eigenvalues not converged
     c_bands:  1 eigenvalues not converged
     c_bands:  1 eigenvalues not converged
     ethr =  2.47E-06,  avg # of iterations =  5.0

     total cpu time spent up to now is      124.1 secs

     total energy              =    -439.74754783 Ry
     Harris-Foulkes estimate   =    -439.74763724 Ry
     estimated scf accuracy    <       0.00019880 Ry

     iteration #  9     ecut=    40.00 Ry     beta=0.70
     CG style diagonalization
     ethr =  5.52E-07,  avg # of iterations =  3.4

     total cpu time spent up to now is      126.2 secs

     End of self-consistent calculation

     Number of k-points >= 100: set verbosity='high' to print the bands.

     the Fermi energy is    22.1740 ev

!    total energy              =    -439.74754397 Ry
     Harris-Foulkes estimate   =    -439.74757302 Ry
     estimated scf accuracy    <       0.00003533 Ry

     The total energy is the sum of the following terms:

     one-electron contribution =    -120.15931354 Ry
     hartree contribution      =      78.49284718 Ry
     xc contribution           =     -40.79975515 Ry
     ewald contribution        =    -357.16116578 Ry
     smearing contrib. (-TS)   =      -0.12015668 Ry

     convergence has been achieved in   9 iterations

     Forces acting on atoms (Ry/au):

     atom    1 type  1   force =     0.00000000    0.00000000    0.00000000
     atom    2 type  2   force =     0.00000000    0.00000000    0.00000000

     Total force =     0.000000     Total SCF correction =     0.000000


     entering subroutine stress ...

          total   stress  (Ry/bohr**3)                   (kbar)     P= -314.27
  -0.00194339   0.00000000   0.00000000       -285.88      0.00      0.00
   0.00000000  -0.00194339   0.00000000          0.00   -285.88      0.00
   0.00000000   0.00000000  -0.00252232          0.00      0.00   -371.05


     Writing output data file Prototype-La-tP2-AuCu.save
 
     init_run     :      1.13s CPU      1.29s WALL (       2 calls)
     electrons    :    106.39s CPU    119.97s WALL (       5 calls)
     update_pot   :      0.45s CPU      0.45s WALL (       3 calls)
     forces       :      0.61s CPU      0.63s WALL (       5 calls)
     stress       :      1.61s CPU      1.65s WALL (       5 calls)

     Called by init_run:
     wfcinit      :      0.88s CPU      1.03s WALL (       2 calls)
     potinit      :      0.08s CPU      0.09s WALL (       2 calls)

     Called by electrons:
     c_bands      :    101.71s CPU    108.31s WALL (      32 calls)
     sum_band     :      4.59s CPU      4.86s WALL (      32 calls)
     v_of_rho     :      0.01s CPU      0.01s WALL (      37 calls)
     mix_rho      :      0.01s CPU      0.01s WALL (      32 calls)

     Called by c_bands:
     init_us_2    :      0.89s CPU      0.93s WALL (    7600 calls)
     ccgdiagg     :     89.37s CPU     94.38s WALL (    3456 calls)
     wfcrot       :     12.37s CPU     13.75s WALL (    3556 calls)

     Called by *cgdiagg:
     h_psi        :     70.86s CPU     77.07s WALL (  424541 calls)
     cdiaghg      :      0.57s CPU      0.77s WALL (    3556 calls)

     Called by h_psi:
     add_vuspsi   :      4.33s CPU      5.37s WALL (  424541 calls)

     General routines
     calbec       :     12.93s CPU     14.91s WALL (  846526 calls)
     fft          :      0.02s CPU      0.02s WALL (     171 calls)
     fftw         :     57.28s CPU     59.56s WALL ( 1068834 calls)
     davcio       :      0.53s CPU      0.83s WALL (   10800 calls)
 
     Parallel routines
     fft_scatter  :     19.17s CPU     20.66s WALL ( 1069005 calls)
 
     PWSCF        :  1m51.06s CPU     2m 7.04s WALL

 
   This run was terminated on:  22:47:45  22Mar2018            

=------------------------------------------------------------------------------=
   JOB DONE.
=------------------------------------------------------------------------------=
