
     Program PWSCF v.5.0.2 starts on 22Mar2018 at 22:48:53 

     This program is part of the open-source Quantum ESPRESSO suite
     for quantum simulation of materials; please cite
         "P. Giannozzi et al., J. Phys.:Condens. Matter 21 395502 (2009);
          URL http://www.quantum-espresso.org", 
     in publications or presentations arising from this work. More details at
     http://www.quantum-espresso.org/quote.php

     Parallel version (MPI), running on     4 processors
     R & G space division:  proc/nbgrp/npool/nimage =       4

     Current dimensions of program PWSCF are:
     Max number of different atomic species (ntypx) = 10
     Max number of k-points (npk) =  40000
     Max angular momentum in pseudopotentials (lmaxx) =  3
     Waiting for input...
     Reading input from standard input

     Subspace diagonalization in iterative solution of the eigenvalue problem:
     a serial algorithm will be used

 
     Parallelization info
     --------------------
     sticks:   dense  smooth     PW     G-vecs:    dense   smooth      PW
     Min         396     396    112                10116    10116    1566
     Max         397     397    113                10119    10119    1567
     Sum        1585    1585    451                40467    40467    6267
 


     bravais-lattice index     =            0
     lattice parameter (alat)  =      12.0168  a.u.
     unit-cell volume          =    1187.3413 (a.u.)^3
     number of atoms/cell      =            8
     number of atomic types    =            2
     number of electrons       =       136.00
     number of Kohn-Sham states=           82
     kinetic-energy cutoff     =      40.0000  Ry
     charge density cutoff     =     160.0000  Ry
     convergence threshold     =      1.0E-04
     mixing beta               =       0.7000
     number of iterations used =            8  plain     mixing
     Exchange-correlation      = SLA-PZ-NOGX-NOGC ( 1 1 0 0 0)
     EXX-fraction              =        0.00
     nstep                     =           50


     celldm(1)=  12.016801  celldm(2)=   0.000000  celldm(3)=   0.000000
     celldm(4)=   0.000000  celldm(5)=   0.000000  celldm(6)=   0.000000

     crystal axes: (cart. coord. in units of alat)
               a(1) = (   1.000000   0.000000   0.000000 )  
               a(2) = (  -0.500000   0.866025   0.000000 )  
               a(3) = (   0.000000   0.000000   0.790093 )  

     reciprocal axes: (cart. coord. in units 2 pi/alat)
               b(1) = (  1.000000  0.577350  0.000000 )  
               b(2) = (  0.000000  1.154701  0.000000 )  
               b(3) = (  0.000000  0.000000  1.265674 )  


     PseudoPot. # 1 for Gd read from file:
     /home/cwx6513/pp.La/Gd.UPF
     MD5 check sum: 09a8be538722f05520810cb6aac0efd2
     Pseudo is Norm-conserving, Zval = 18.0
     Generated in analytical, separable form
     Using radial grid of 1263 points,  6 beta functions with: 
                l(1) =   0
                l(2) =   0
                l(3) =   1
                l(4) =   1
                l(5) =   2
                l(6) =   3

     PseudoPot. # 2 for Nd read from file:
     /home/cwx6513/pp.La/Nd.UPF
     MD5 check sum: c66c5b6abe7b5840ced9b1e244e3bed6
     Pseudo is Norm-conserving, Zval = 14.0
     Generated in analytical, separable form
     Using radial grid of 1257 points,  6 beta functions with: 
                l(1) =   0
                l(2) =   0
                l(3) =   1
                l(4) =   1
                l(5) =   2
                l(6) =   3

     atomic species   valence    mass     pseudopotential
        Mg            18.00    24.30500     Gd( 1.00)
        Cd            14.00   112.41100     Nd( 1.00)

     24 Sym. Ops., with inversion, found (12 have fractional translation)



   Cartesian axes

     site n.     atom                  positions (alat units)
         1           Mg  tau(   1) = (   0.2478935   0.7204716   0.1975233  )
         2           Mg  tau(   2) = (   0.7478935   0.1455538   0.5925699  )
         3           Mg  tau(   3) = (   0.2521065   0.1455538   0.5925699  )
         4           Mg  tau(   4) = (  -0.2478935   0.7204716   0.1975233  )
         5           Mg  tau(   5) = (   0.0000000   0.2911075   0.1975233  )
         6           Mg  tau(   6) = (   0.5000000   0.5749179   0.5925699  )
         7           Cd  tau(   7) = (   0.5000005   0.2886748   0.1975233  )
         8           Cd  tau(   8) = (  -0.0000005   0.5773506   0.5925699  )

     number of k points=    64  gaussian smearing, width (Ry)=  0.1000
                       cart. coord. in units 2pi/alat
        k(    1) = (   0.0000000   0.0000000   0.0000000), wk =   0.0095238
        k(    2) = (   0.0000000   0.0000000   0.1808105), wk =   0.0190476
        k(    3) = (   0.0000000   0.0000000   0.3616210), wk =   0.0190476
        k(    4) = (   0.0000000   0.0000000   0.5424315), wk =   0.0190476
        k(    5) = (   0.0000000   0.1924501   0.0000000), wk =   0.0190476
        k(    6) = (   0.0000000   0.1924501   0.1808105), wk =   0.0380952
        k(    7) = (   0.0000000   0.1924501   0.3616210), wk =   0.0380952
        k(    8) = (   0.0000000   0.1924501   0.5424315), wk =   0.0380952
        k(    9) = (   0.0000000   0.3849002   0.0000000), wk =   0.0190476
        k(   10) = (   0.0000000   0.3849002   0.1808105), wk =   0.0380952
        k(   11) = (   0.0000000   0.3849002   0.3616210), wk =   0.0380952
        k(   12) = (   0.0000000   0.3849002   0.5424315), wk =   0.0380952
        k(   13) = (   0.0000000  -0.5773503   0.0000000), wk =   0.0095238
        k(   14) = (   0.0000000  -0.5773503   0.1808105), wk =   0.0190476
        k(   15) = (   0.0000000  -0.5773503   0.3616210), wk =   0.0190476
        k(   16) = (   0.0000000  -0.5773503   0.5424315), wk =   0.0190476
        k(   17) = (   0.2000000   0.1154701   0.0000000), wk =   0.0190476
        k(   18) = (   0.2000000   0.1154701   0.1808105), wk =   0.0380952
        k(   19) = (   0.2000000   0.1154701   0.3616210), wk =   0.0380952
        k(   20) = (   0.2000000   0.1154701   0.5424315), wk =   0.0380952
        k(   21) = (   0.2000000   0.3079201   0.0000000), wk =   0.0190476
        k(   22) = (   0.2000000   0.3079201   0.1808105), wk =   0.0380952
        k(   23) = (   0.2000000   0.3079201   0.3616210), wk =   0.0380952
        k(   24) = (   0.2000000   0.3079201   0.5424315), wk =   0.0380952
        k(   25) = (   0.2000000   0.5003702   0.0000000), wk =   0.0190476
        k(   26) = (   0.2000000   0.5003702   0.1808105), wk =   0.0380952
        k(   27) = (   0.2000000   0.5003702   0.3616210), wk =   0.0380952
        k(   28) = (   0.2000000   0.5003702   0.5424315), wk =   0.0380952
        k(   29) = (   0.2000000  -0.4618802   0.0000000), wk =   0.0190476
        k(   30) = (   0.2000000  -0.4618802   0.1808105), wk =   0.0380952
        k(   31) = (   0.2000000  -0.4618802   0.3616210), wk =   0.0380952
        k(   32) = (   0.2000000  -0.4618802   0.5424315), wk =   0.0380952
        k(   33) = (   0.2000000  -0.2694301   0.0000000), wk =   0.0190476
        k(   34) = (   0.2000000  -0.2694301   0.1808105), wk =   0.0380952
        k(   35) = (   0.2000000  -0.2694301   0.3616210), wk =   0.0380952
        k(   36) = (   0.2000000  -0.2694301   0.5424315), wk =   0.0380952
        k(   37) = (   0.2000000  -0.0769800   0.0000000), wk =   0.0190476
        k(   38) = (   0.2000000  -0.0769800   0.1808105), wk =   0.0380952
        k(   39) = (   0.2000000  -0.0769800   0.3616210), wk =   0.0380952
        k(   40) = (   0.2000000  -0.0769800   0.5424315), wk =   0.0380952
        k(   41) = (   0.4000000   0.2309401   0.0000000), wk =   0.0190476
        k(   42) = (   0.4000000   0.2309401   0.1808105), wk =   0.0380952
        k(   43) = (   0.4000000   0.2309401   0.3616210), wk =   0.0380952
        k(   44) = (   0.4000000   0.2309401   0.5424315), wk =   0.0380952
        k(   45) = (   0.4000000   0.4233902   0.0000000), wk =   0.0190476
        k(   46) = (   0.4000000   0.4233902   0.1808105), wk =   0.0380952
        k(   47) = (   0.4000000   0.4233902   0.3616210), wk =   0.0380952
        k(   48) = (   0.4000000   0.4233902   0.5424315), wk =   0.0380952
        k(   49) = (   0.4000000   0.6158403   0.0000000), wk =   0.0190476
        k(   50) = (   0.4000000   0.6158403   0.1808105), wk =   0.0380952
        k(   51) = (   0.4000000   0.6158403   0.3616210), wk =   0.0380952
        k(   52) = (   0.4000000   0.6158403   0.5424315), wk =   0.0380952
        k(   53) = (   0.4000000  -0.3464102   0.0000000), wk =   0.0190476
        k(   54) = (   0.4000000  -0.3464102   0.1808105), wk =   0.0380952
        k(   55) = (   0.4000000  -0.3464102   0.3616210), wk =   0.0380952
        k(   56) = (   0.4000000  -0.3464102   0.5424315), wk =   0.0380952
        k(   57) = (   0.4000000  -0.1539601   0.0000000), wk =   0.0190476
        k(   58) = (   0.4000000  -0.1539601   0.1808105), wk =   0.0380952
        k(   59) = (   0.4000000  -0.1539601   0.3616210), wk =   0.0380952
        k(   60) = (   0.4000000  -0.1539601   0.5424315), wk =   0.0380952
        k(   61) = (   0.4000000   0.0384900   0.0000000), wk =   0.0190476
        k(   62) = (   0.4000000   0.0384900   0.1808105), wk =   0.0380952
        k(   63) = (   0.4000000   0.0384900   0.3616210), wk =   0.0380952
        k(   64) = (   0.4000000   0.0384900   0.5424315), wk =   0.0380952

     Dense  grid:    40467 G-vectors     FFT dimensions: (  50,  50,  40)

     Largest allocated arrays     est. size (Mb)     dimensions
        Kohn-Sham Wavefunctions         1.62 Mb     (   1298,   82)
        NL pseudopotentials             3.17 Mb     (   1298,  160)
        Each V/rho on FFT grid          0.38 Mb     (  25000)
        Each G-vector array             0.08 Mb     (  10119)
        G-vector shells                 0.08 Mb     (  10119)
     Largest temporary arrays     est. size (Mb)     dimensions
        Each subspace H/S matrix        0.10 Mb     (  82,  82)
        Each <psi_i|beta_j> matrix      0.20 Mb     (    160,   82)
        Arrays for rho mixing           3.05 Mb     (  25000,   8)

     Initial potential from superposition of free atoms

     Starting from uniform charge
     Starting wfc are    0 randomized atomic wfcs

     total cpu time spent up to now is        9.1 secs

     Self-consistent Calculation

     iteration #  1     ecut=    40.00 Ry     beta=0.70
     CG style diagonalization
     c_bands:  4 eigenvalues not converged
     c_bands:  1 eigenvalues not converged
     c_bands:  2 eigenvalues not converged
     c_bands:  1 eigenvalues not converged
     c_bands:  4 eigenvalues not converged
     c_bands:  1 eigenvalues not converged
     c_bands:  1 eigenvalues not converged
     c_bands:  2 eigenvalues not converged
     c_bands:  1 eigenvalues not converged
     c_bands:  1 eigenvalues not converged
     c_bands:  2 eigenvalues not converged
     c_bands:  3 eigenvalues not converged
     c_bands:  2 eigenvalues not converged
     c_bands:  1 eigenvalues not converged
     c_bands:  3 eigenvalues not converged
     c_bands:  2 eigenvalues not converged
     c_bands:  3 eigenvalues not converged
     c_bands:  1 eigenvalues not converged
     c_bands:  4 eigenvalues not converged
     c_bands:  3 eigenvalues not converged
     c_bands:  1 eigenvalues not converged
     c_bands:  1 eigenvalues not converged
     c_bands:  2 eigenvalues not converged
     c_bands:  4 eigenvalues not converged
     c_bands:  2 eigenvalues not converged
     c_bands:  1 eigenvalues not converged
     c_bands:  4 eigenvalues not converged
     ethr =  1.00E-02,  avg # of iterations = 12.1

     total cpu time spent up to now is      123.3 secs

     total energy              =   -1250.95313319 Ry
     Harris-Foulkes estimate   =   -1744.11370462 Ry
     estimated scf accuracy    <     632.64957113 Ry

     iteration #  2     ecut=    40.00 Ry     beta=0.70
     CG style diagonalization
     c_bands:  2 eigenvalues not converged
     c_bands:  1 eigenvalues not converged
     c_bands:  1 eigenvalues not converged
     c_bands:  1 eigenvalues not converged
     c_bands:  1 eigenvalues not converged
     c_bands:  1 eigenvalues not converged
     c_bands:  1 eigenvalues not converged
     c_bands:  1 eigenvalues not converged
     c_bands:  1 eigenvalues not converged
     c_bands:  1 eigenvalues not converged
     c_bands:  1 eigenvalues not converged
     c_bands:  1 eigenvalues not converged
     c_bands:  1 eigenvalues not converged
     c_bands:  1 eigenvalues not converged
     c_bands:  1 eigenvalues not converged
     ethr =  1.00E-02,  avg # of iterations = 10.2

     total cpu time spent up to now is      221.5 secs

     total energy              =   -1232.49606926 Ry
     Harris-Foulkes estimate   =   -1515.09181442 Ry
     estimated scf accuracy    <     485.33553599 Ry

     iteration #  3     ecut=    40.00 Ry     beta=0.70
     CG style diagonalization
     c_bands:  4 eigenvalues not converged
     c_bands:  4 eigenvalues not converged
     c_bands:  4 eigenvalues not converged
     c_bands:  1 eigenvalues not converged
     c_bands:  3 eigenvalues not converged
     c_bands:  2 eigenvalues not converged
     c_bands:  2 eigenvalues not converged
     c_bands:  1 eigenvalues not converged
     c_bands:  1 eigenvalues not converged
     c_bands:  2 eigenvalues not converged
     c_bands:  1 eigenvalues not converged
     c_bands:  1 eigenvalues not converged
     c_bands:  1 eigenvalues not converged
     c_bands:  2 eigenvalues not converged
     c_bands:  2 eigenvalues not converged
     c_bands:  1 eigenvalues not converged
     c_bands:  2 eigenvalues not converged
     c_bands:  1 eigenvalues not converged
     c_bands:  1 eigenvalues not converged
     c_bands:  2 eigenvalues not converged
     c_bands:  1 eigenvalues not converged
     c_bands:  2 eigenvalues not converged
     c_bands:  2 eigenvalues not converged
     c_bands:  1 eigenvalues not converged
     c_bands:  1 eigenvalues not converged
     c_bands:  1 eigenvalues not converged
     c_bands:  2 eigenvalues not converged
     c_bands:  1 eigenvalues not converged
     c_bands:  2 eigenvalues not converged
     c_bands:  1 eigenvalues not converged
     c_bands:  2 eigenvalues not converged
     c_bands:  3 eigenvalues not converged
     c_bands:  3 eigenvalues not converged
     c_bands:  2 eigenvalues not converged
     c_bands:  1 eigenvalues not converged
     c_bands:  1 eigenvalues not converged
     c_bands:  1 eigenvalues not converged
     c_bands:  1 eigenvalues not converged
     c_bands:  1 eigenvalues not converged
     c_bands:  1 eigenvalues not converged
     c_bands:  2 eigenvalues not converged
     c_bands:  2 eigenvalues not converged
     c_bands:  1 eigenvalues not converged
     c_bands:  1 eigenvalues not converged
     c_bands:  1 eigenvalues not converged
     ethr =  1.00E-02,  avg # of iterations = 10.3

     total cpu time spent up to now is      317.7 secs

     total energy              =   -1397.26785875 Ry
     Harris-Foulkes estimate   =   -1507.62032696 Ry
     estimated scf accuracy    <     302.25958307 Ry

     iteration #  4     ecut=    40.00 Ry     beta=0.70
     CG style diagonalization
     c_bands:  1 eigenvalues not converged
     c_bands:  2 eigenvalues not converged
     c_bands:  1 eigenvalues not converged
     ethr =  1.00E-02,  avg # of iterations =  7.3

     total cpu time spent up to now is      385.8 secs

     total energy              =   -1430.91056466 Ry
     Harris-Foulkes estimate   =   -1442.84786278 Ry
     estimated scf accuracy    <      37.54857758 Ry

     iteration #  5     ecut=    40.00 Ry     beta=0.70
     CG style diagonalization
     ethr =  1.00E-02,  avg # of iterations =  3.6

     total cpu time spent up to now is      419.3 secs

     total energy              =   -1427.48913378 Ry
     Harris-Foulkes estimate   =   -1433.89322996 Ry
     estimated scf accuracy    <      15.77570254 Ry

     iteration #  6     ecut=    40.00 Ry     beta=0.70
     CG style diagonalization
     ethr =  1.00E-02,  avg # of iterations =  3.4

     total cpu time spent up to now is      450.6 secs

     total energy              =   -1428.27431260 Ry
     Harris-Foulkes estimate   =   -1429.11722834 Ry
     estimated scf accuracy    <       1.63021321 Ry

     iteration #  7     ecut=    40.00 Ry     beta=0.70
     CG style diagonalization
     c_bands:  1 eigenvalues not converged
     ethr =  1.20E-03,  avg # of iterations =  4.7

     total cpu time spent up to now is      495.3 secs

     total energy              =   -1428.97295109 Ry
     Harris-Foulkes estimate   =   -1429.71443243 Ry
     estimated scf accuracy    <       3.19024812 Ry

     iteration #  8     ecut=    40.00 Ry     beta=0.70
     CG style diagonalization
     ethr =  1.20E-03,  avg # of iterations =  3.1

     total cpu time spent up to now is      524.0 secs

     total energy              =   -1429.15541993 Ry
     Harris-Foulkes estimate   =   -1429.23813113 Ry
     estimated scf accuracy    <       0.11477251 Ry

     iteration #  9     ecut=    40.00 Ry     beta=0.70
     CG style diagonalization
     c_bands:  1 eigenvalues not converged
     c_bands:  1 eigenvalues not converged
     c_bands:  1 eigenvalues not converged
     c_bands:  1 eigenvalues not converged
     c_bands:  1 eigenvalues not converged
     c_bands:  2 eigenvalues not converged
     c_bands:  1 eigenvalues not converged
     ethr =  8.44E-05,  avg # of iterations =  4.7

     total cpu time spent up to now is      565.9 secs

     total energy              =   -1429.16694072 Ry
     Harris-Foulkes estimate   =   -1429.31684048 Ry
     estimated scf accuracy    <       0.49865572 Ry

     iteration # 10     ecut=    40.00 Ry     beta=0.70
     CG style diagonalization
     ethr =  8.44E-05,  avg # of iterations =  3.6

     total cpu time spent up to now is      598.7 secs

     total energy              =   -1429.23338244 Ry
     Harris-Foulkes estimate   =   -1429.23359197 Ry
     estimated scf accuracy    <       0.00077633 Ry

     iteration # 11     ecut=    40.00 Ry     beta=0.70
     CG style diagonalization
     c_bands:  2 eigenvalues not converged
     c_bands:  1 eigenvalues not converged
     c_bands:  1 eigenvalues not converged
     c_bands:  1 eigenvalues not converged
     c_bands:  1 eigenvalues not converged
     c_bands:  2 eigenvalues not converged
     c_bands:  1 eigenvalues not converged
     c_bands:  2 eigenvalues not converged
     c_bands:  1 eigenvalues not converged
     c_bands:  1 eigenvalues not converged
     c_bands:  1 eigenvalues not converged
     c_bands:  1 eigenvalues not converged
     ethr =  5.71E-07,  avg # of iterations =  5.5

     total cpu time spent up to now is      654.5 secs

     total energy              =   -1429.23398987 Ry
     Harris-Foulkes estimate   =   -1429.23422939 Ry
     estimated scf accuracy    <       0.00043707 Ry

     iteration # 12     ecut=    40.00 Ry     beta=0.70
     CG style diagonalization
     c_bands:  1 eigenvalues not converged
     c_bands:  1 eigenvalues not converged
     c_bands:  1 eigenvalues not converged
     ethr =  3.21E-07,  avg # of iterations =  3.8

     total cpu time spent up to now is      690.9 secs

     total energy              =   -1429.23399535 Ry
     Harris-Foulkes estimate   =   -1429.23420863 Ry
     estimated scf accuracy    <       0.00081960 Ry

     iteration # 13     ecut=    40.00 Ry     beta=0.70
     CG style diagonalization
     c_bands:  1 eigenvalues not converged
     ethr =  3.21E-07,  avg # of iterations =  3.1

     total cpu time spent up to now is      721.6 secs

     End of self-consistent calculation

          k = 0.0000 0.0000 0.0000 (  5047 PWs)   bands (ev):

   -47.3105 -47.2735 -47.2734 -47.2691 -47.2539 -47.2538 -27.5397 -27.5377
   -18.4721 -18.4303 -18.3410 -18.3227 -18.3226 -18.3167 -18.3166 -18.2910
   -18.2910 -18.2070 -18.1100 -18.1099 -18.0392 -18.0386 -18.0259 -18.0258
   -18.0191 -18.0190  -5.7819  -5.7639  -5.7469  -5.7469  -5.7312  -5.7312
    13.8941  14.6066  14.6112  14.6112  14.6410  15.1497  15.2390  15.2391
    15.2893  15.2893  15.3479  16.4834  16.7915  16.7915  17.1738  17.1767
    17.1767  17.5981  17.6478  17.6478  17.8420  17.8420  18.0855  18.0856
    18.1709  18.1710  18.4383  18.4383  19.3010  19.4051  19.8172  20.1457
    20.1806  21.3381  21.3381  21.5703  21.5704  21.7318  21.7551  21.7551
    22.4140  22.4140  23.8622  23.8622  24.5012  24.9643  24.9644  25.6118
    27.4619  27.7071

          k = 0.0000 0.0000 0.1808 (  5065 PWs)   bands (ev):

   -47.3108 -47.2754 -47.2753 -47.2714 -47.2542 -47.2541 -27.5397 -27.5380
   -18.4558 -18.4449 -18.3804 -18.3804 -18.3359 -18.3107 -18.3107 -18.2538
   -18.2538 -18.1936 -18.1026 -18.1026 -18.0624 -18.0499 -18.0288 -18.0287
   -18.0212 -18.0212  -5.7817  -5.7673  -5.7474  -5.7474  -5.7309  -5.7309
    14.0769  14.6858  14.6942  14.6942  14.6946  14.7822  14.7823  14.8221
    15.7537  15.8286  15.8287  16.6119  16.6477  16.6478  16.8168  17.1663
    17.1663  17.3287  17.4814  17.4815  17.5814  17.5814  17.7958  17.7958
    18.2918  18.2918  19.3256  19.3256  19.3272  19.7189  20.0144  20.0789
    20.1339  21.0685  21.4180  21.4180  21.5769  21.5770  21.7930  21.7931
    22.0608  22.0608  23.5788  23.5788  24.1629  24.8829  24.8829  25.4282
    27.6868  27.6871

          k = 0.0000 0.0000 0.3616 (  5047 PWs)   bands (ev):

   -47.3076 -47.2719 -47.2718 -47.2715 -47.2563 -47.2563 -27.5399 -27.5386
   -18.4456 -18.4287 -18.4078 -18.4078 -18.3535 -18.3535 -18.2998 -18.1793
   -18.1793 -18.1746 -18.1137 -18.0903 -18.0902 -18.0731 -18.0277 -18.0277
   -18.0220 -18.0220  -5.7787  -5.7718  -5.7416  -5.7416  -5.7322  -5.7322
    14.5455  14.5641  14.5641  14.5949  14.8981  14.9032  14.9084  14.9084
    15.9636  15.9636  16.0156  16.0508  16.0630  16.0630  16.9871  17.1135
    17.1135  17.1472  17.3215  17.3216  17.6809  17.6809  18.1535  18.1536
    18.6057  18.6058  19.1288  19.2021  19.8975  19.8975  19.9620  20.1016
    20.1597  21.2756  21.3031  21.3031  21.4874  21.4874  21.6877  21.6877
    22.1362  22.1362  22.8749  22.8749  23.2537  24.5500  24.5501  24.7729
    27.6254  27.6255

          k = 0.0000 0.0000 0.5424 (  5041 PWs)   bands (ev):

   -47.2946 -47.2836 -47.2655 -47.2655 -47.2624 -47.2624 -27.5398 -27.5393
   -18.4332 -18.4302 -18.4118 -18.4118 -18.3903 -18.3903 -18.2386 -18.1659
   -18.1431 -18.1297 -18.1297 -18.1048 -18.0963 -18.0962 -18.0286 -18.0285
   -18.0266 -18.0266  -5.7783  -5.7775  -5.7363  -5.7363  -5.7331  -5.7331
    14.6524  14.6524  14.6686  14.8544  14.9587  14.9587  15.1002  15.1368
    15.5886  15.5886  15.6612  15.8648  15.8648  15.8983  17.0540  17.0540
    17.1423  17.1423  17.2740  17.5792  18.0830  18.1730  18.1730  18.3304
    18.6172  18.6172  19.0238  19.0238  19.7561  19.7561  20.0012  20.0534
    20.7938  20.9446  20.9446  21.2057  21.2057  21.8049  21.8050  21.9124
    22.0973  22.0973  22.6593  23.0692  23.0692  23.7802  23.9185  23.9186
    27.6149  27.6149

          k = 0.0000 0.1925 0.0000 (  5083 PWs)   bands (ev):

   -47.3115 -47.2794 -47.2764 -47.2684 -47.2558 -47.2552 -27.5398 -27.5381
   -18.4621 -18.4202 -18.3306 -18.3258 -18.3237 -18.3225 -18.3216 -18.2860
   -18.2748 -18.2146 -18.1231 -18.1130 -18.0568 -18.0560 -18.0410 -18.0405
   -18.0391 -18.0207  -5.7821  -5.7666  -5.7544  -5.7516  -5.7389  -5.7342
    14.0959  14.6950  14.7800  14.7954  14.8017  15.1954  15.2470  15.3382
    15.3651  15.4372  15.4759  16.5257  16.7640  16.8590  16.8681  17.2930
    17.3830  17.5606  17.5945  17.7189  17.7790  17.8625  17.8975  17.9500
    18.1489  18.1895  18.2026  18.2232  18.9064  19.0800  19.7149  19.9021
    20.1026  20.3279  21.3608  21.3770  21.4377  21.6431  21.7647  22.3120
    22.3480  22.7176  23.0082  23.0781  24.1558  25.7504  25.9716  26.6764
    27.2239  27.4457

          k = 0.0000 0.1925 0.1808 (  5077 PWs)   bands (ev):

   -47.3105 -47.2763 -47.2753 -47.2699 -47.2569 -47.2563 -27.5399 -27.5383
   -18.4470 -18.4216 -18.3765 -18.3737 -18.3272 -18.3079 -18.2977 -18.2630
   -18.2546 -18.1996 -18.1128 -18.1045 -18.0642 -18.0612 -18.0539 -18.0374
   -18.0363 -18.0209  -5.7809  -5.7699  -5.7523  -5.7494  -5.7391  -5.7335
    14.2722  14.7515  14.8303  14.8634  14.8658  14.9054  14.9227  14.9333
    15.8481  15.9010  15.9020  16.5838  16.5887  16.7021  16.7728  17.0195
    17.2569  17.3124  17.4424  17.4465  17.5178  17.6838  17.7509  17.8040
    18.2398  18.2594  18.9143  18.9962  19.2747  19.4115  19.6823  19.8186
    19.9410  20.2050  21.3297  21.3405  21.4770  21.7571  21.8431  21.9321
    22.0970  22.5506  22.6747  22.8417  24.0459  25.5985  25.7300  26.1132
    27.3884  27.3907

          k = 0.0000 0.1925 0.3616 (  5061 PWs)   bands (ev):

   -47.3053 -47.2741 -47.2721 -47.2720 -47.2590 -47.2575 -27.5400 -27.5389
   -18.4245 -18.4229 -18.4030 -18.3991 -18.3485 -18.3401 -18.2950 -18.2108
   -18.1863 -18.1563 -18.1192 -18.1095 -18.0877 -18.0675 -18.0586 -18.0381
   -18.0346 -18.0226  -5.7790  -5.7740  -5.7478  -5.7452  -5.7388  -5.7330
    14.6442  14.6911  14.7095  14.7344  15.0170  15.0653  15.0904  15.1059
    15.9537  15.9879  16.0476  16.1403  16.1634  16.2164  16.8250  17.0312
    17.0763  17.1424  17.2282  17.4015  17.5077  17.6391  18.1053  18.2080
    18.5740  18.5992  18.7941  19.0340  19.4205  19.7118  19.7588  20.0016
    20.0733  20.1407  21.0385  21.2969  21.3595  21.4798  21.5193  21.9197
    22.0733  22.2773  22.5195  22.5926  23.5996  24.8178  25.0396  25.0545
    27.3837  27.5663

          k = 0.0000 0.1925 0.5424 (  5050 PWs)   bands (ev):

   -47.2935 -47.2818 -47.2680 -47.2677 -47.2636 -47.2626 -27.5399 -27.5396
   -18.4254 -18.4184 -18.4071 -18.4047 -18.3866 -18.3821 -18.2341 -18.1726
   -18.1662 -18.1358 -18.1316 -18.1100 -18.0989 -18.0781 -18.0505 -18.0410
   -18.0323 -18.0276  -5.7786  -5.7777  -5.7425  -5.7394  -5.7393  -5.7346
    14.7391  14.7879  14.7913  15.0026  15.0720  15.1289  15.2837  15.3091
    15.6469  15.6657  15.7331  15.9441  16.0000  16.0291  16.8356  16.9050
    17.1536  17.2478  17.2769  17.4404  17.8763  18.0875  18.0938  18.2274
    18.5725  18.5738  18.8879  18.9746  19.4797  19.5257  19.6400  19.8105
    20.4111  20.6353  20.8133  21.0415  21.1800  21.2502  21.5535  21.8343
    21.8666  22.4036  22.4524  23.2614  23.2843  23.7490  24.1808  24.2639
    27.6797  27.9002

          k = 0.0000 0.3849 0.0000 (  5079 PWs)   bands (ev):

   -47.3082 -47.2851 -47.2767 -47.2665 -47.2559 -47.2543 -27.5399 -27.5388
   -18.4450 -18.3766 -18.3292 -18.3254 -18.3163 -18.3092 -18.3003 -18.2432
   -18.2382 -18.2211 -18.1292 -18.1244 -18.1079 -18.0986 -18.0929 -18.0559
   -18.0323 -18.0196  -5.7780  -5.7685  -5.7658  -5.7574  -5.7531  -5.7376
    14.6220  14.9283  15.1293  15.2539  15.2628  15.2641  15.3011  15.4170
    15.7658  15.7843  15.7977  16.5595  16.6232  16.6810  17.0283  17.2262
    17.2842  17.3553  17.3775  17.5429  17.5501  17.6636  17.7350  17.7608
    17.9745  18.0187  18.1550  18.1937  18.3680  18.5034  19.1194  19.6856
    19.7549  19.9795  20.7023  20.8875  21.1475  21.1722  21.6497  22.1116
    22.1826  22.3049  22.3368  24.1336  24.7362  26.3097  26.5237  26.8353
    27.5093  27.8117

          k = 0.0000 0.3849 0.1808 (  5090 PWs)   bands (ev):

   -47.3062 -47.2838 -47.2770 -47.2688 -47.2574 -47.2570 -27.5400 -27.5390
   -18.4316 -18.3901 -18.3589 -18.3538 -18.3201 -18.2791 -18.2744 -18.2611
   -18.2449 -18.2012 -18.1318 -18.1231 -18.1198 -18.0879 -18.0858 -18.0544
   -18.0458 -18.0224  -5.7802  -5.7725  -5.7630  -5.7560  -5.7524  -5.7374
    14.7536  14.9538  15.1190  15.1415  15.1752  15.2256  15.3789  15.3863
    15.9692  16.0072  16.1129  16.4004  16.5589  16.6278  16.8498  16.8686
    17.0960  17.2477  17.2627  17.5134  17.5454  17.6062  17.6794  17.9038
    18.0018  18.1921  18.3847  18.4467  18.5518  18.7946  19.1004  19.5580
    19.6274  19.8871  20.6405  20.9450  21.1018  21.2434  21.6222  21.7182
    21.8484  22.4490  22.4948  23.9590  24.2391  25.9567  26.4043  26.6101
    27.2344  27.8369

          k = 0.0000 0.3849 0.3616 (  5078 PWs)   bands (ev):

   -47.3000 -47.2800 -47.2729 -47.2719 -47.2618 -47.2592 -27.5402 -27.5395
   -18.4122 -18.4076 -18.3803 -18.3685 -18.3342 -18.3068 -18.2642 -18.2453
   -18.2020 -18.1562 -18.1368 -18.1323 -18.1199 -18.0792 -18.0744 -18.0637
   -18.0488 -18.0271  -5.7818  -5.7778  -5.7568  -5.7506  -5.7501  -5.7373
    14.8732  15.0164  15.0360  15.1138  15.3128  15.4363  15.5920  15.6204
    15.8581  15.9820  16.1169  16.3432  16.4052  16.4523  16.6753  16.8000
    16.8944  16.9796  17.2700  17.4841  17.4926  17.7330  17.7427  18.0431
    18.0591  18.4213  18.6418  18.6418  18.8170  18.8306  19.0926  19.2418
    19.7889  20.0415  20.4468  20.8333  20.9072  21.2658  21.3910  21.4460
    21.5204  22.6171  22.8396  22.8797  24.2889  24.4895  25.6854  25.8572
    27.2511  28.1270

          k = 0.0000 0.3849 0.5424 (  5051 PWs)   bands (ev):

   -47.2902 -47.2799 -47.2711 -47.2675 -47.2661 -47.2623 -27.5403 -27.5400
   -18.4157 -18.4052 -18.3790 -18.3600 -18.3530 -18.3423 -18.2272 -18.2082
   -18.1805 -18.1735 -18.1414 -18.1246 -18.0925 -18.0888 -18.0755 -18.0634
   -18.0421 -18.0310  -5.7816  -5.7804  -5.7510  -5.7490  -5.7436  -5.7390
    14.9812  15.0932  15.1293  15.2785  15.3552  15.4622  15.5667  15.7521
    15.8319  15.9582  15.9701  16.1919  16.3011  16.3560  16.5398  16.6293
    17.0512  17.1629  17.4325  17.5582  17.5929  17.6762  17.8820  17.9693
    18.1160  18.2599  18.5473  18.5510  18.7182  18.7662  19.3451  19.5103
    19.7999  19.8211  20.6774  20.8501  20.9848  21.0840  21.2799  21.3237
    21.8299  22.1308  22.4582  23.0201  23.6356  24.4195  24.6886  24.8275
    27.9915  28.6767

          k = 0.0000-0.5774 0.0000 (  5068 PWs)   bands (ev):

   -47.3020 -47.2905 -47.2774 -47.2662 -47.2545 -47.2527 -27.5398 -27.5392
   -18.4410 -18.3481 -18.3405 -18.3219 -18.3161 -18.2852 -18.2650 -18.2439
   -18.1866 -18.1823 -18.1704 -18.1500 -18.1382 -18.1340 -18.1120 -18.0588
   -18.0266 -18.0230  -5.7772  -5.7707  -5.7702  -5.7604  -5.7587  -5.7373
    15.0202  15.2165  15.2411  15.2728  15.2972  15.3055  15.7573  15.7980
    15.9342  15.9521  16.1946  16.5322  16.5737  16.6816  16.7171  16.7630
    16.9624  16.9904  17.1381  17.4072  17.6863  17.6989  17.7346  17.7620
    17.7800  17.9326  18.0863  18.1146  18.4337  18.4497  18.7398  19.5240
    19.6979  19.9291  20.3282  20.5523  20.7015  20.8010  21.8100  22.0096
    22.0370  22.2425  22.3713  24.1631  26.0884  26.3443  26.4606  26.8800
    27.3777  27.5825

          k = 0.0000-0.5774 0.1808 (  5072 PWs)   bands (ev):

   -47.2998 -47.2888 -47.2755 -47.2682 -47.2576 -47.2544 -27.5400 -27.5394
   -18.4293 -18.3867 -18.3374 -18.3369 -18.3153 -18.2796 -18.2504 -18.2241
   -18.2092 -18.1968 -18.1698 -18.1621 -18.1406 -18.1050 -18.0848 -18.0570
   -18.0407 -18.0241  -5.7796  -5.7738  -5.7660  -5.7584  -5.7564  -5.7388
    15.0294  15.1637  15.3052  15.3261  15.3306  15.3948  15.7624  15.8003
    16.0330  16.0753  16.1736  16.3454  16.3698  16.5776  16.6629  16.8537
    17.1101  17.1547  17.1615  17.2425  17.5750  17.5991  17.7594  17.7616
    17.8749  17.9852  18.1632  18.2601  18.3931  18.6771  18.7436  19.4192
    19.4487  19.8420  20.3120  20.6600  20.7617  20.8339  21.6177  21.6787
    21.7062  22.5090  22.5294  24.3391  25.0048  25.3638  26.5857  27.1335
    27.5722  27.6976

          k = 0.0000-0.5774 0.3616 (  5090 PWs)   bands (ev):

   -47.2928 -47.2865 -47.2734 -47.2716 -47.2645 -47.2610 -27.5403 -27.5399
   -18.4112 -18.4034 -18.3683 -18.3532 -18.3075 -18.2838 -18.2640 -18.2221
   -18.2192 -18.1817 -18.1654 -18.1624 -18.1345 -18.0851 -18.0737 -18.0640
   -18.0527 -18.0310  -5.7839  -5.7806  -5.7609  -5.7550  -5.7532  -5.7395
    15.0997  15.1637  15.3253  15.4191  15.5357  15.6034  15.6298  15.6893
    16.0667  16.2326  16.2747  16.2748  16.2980  16.5103  16.7285  16.8906
    16.9884  17.1186  17.1705  17.3265  17.4219  17.4815  17.7245  17.8017
    17.8382  17.9155  18.2804  18.5114  18.6437  18.7238  18.8728  18.9547
    19.3421  20.0479  20.3074  20.5677  20.6523  20.9714  21.2749  21.3805
    21.4251  22.6900  23.0061  23.4452  24.0050  24.5430  26.0444  26.2713
    27.3000  28.4945

          k = 0.0000-0.5774 0.5424 (  5080 PWs)   bands (ev):

   -47.2846 -47.2827 -47.2737 -47.2720 -47.2681 -47.2655 -27.5405 -27.5403
   -18.4131 -18.4043 -18.3648 -18.3310 -18.3281 -18.3056 -18.2368 -18.2266
   -18.2205 -18.2046 -18.1586 -18.1411 -18.1060 -18.0909 -18.0885 -18.0582
   -18.0483 -18.0364  -5.7841  -5.7833  -5.7581  -5.7553  -5.7458  -5.7414
    15.2706  15.2857  15.4225  15.4269  15.4500  15.4768  15.5685  15.7588
    16.0421  16.2343  16.3371  16.4352  16.4782  16.5085  16.6583  16.7537
    17.0663  17.1606  17.3370  17.4584  17.4694  17.5166  17.6378  17.6492
    17.8247  17.8631  17.9119  18.3349  18.5084  18.5710  19.1337  19.2771
    19.2852  19.8221  20.5629  20.7158  20.8279  20.8921  21.2512  21.2734
    21.7197  22.3594  22.4760  22.7472  23.7984  24.6937  24.9372  25.0769
    28.2398  28.8534

          k = 0.2000 0.1155 0.0000 (  5087 PWs)   bands (ev):

   -47.3128 -47.2803 -47.2764 -47.2686 -47.2560 -47.2543 -27.5398 -27.5382
   -18.4597 -18.4127 -18.3275 -18.3246 -18.3236 -18.3228 -18.3200 -18.2803
   -18.2692 -18.2142 -18.1241 -18.1126 -18.0761 -18.0619 -18.0480 -18.0440
   -18.0389 -18.0203  -5.7815  -5.7667  -5.7566  -5.7525  -5.7433  -5.7348
    14.1811  14.7318  14.8480  14.8711  14.8744  15.2087  15.2499  15.3538
    15.4251  15.4977  15.5315  16.5429  16.7517  16.7992  16.8874  17.3380
    17.4023  17.5291  17.5914  17.7079  17.7479  17.8252  17.8861  17.9088
    18.1262  18.1333  18.1358  18.1875  18.7520  18.9847  19.6335  19.8490
    20.0766  20.1525  21.2288  21.2918  21.4756  21.5899  21.7583  22.2743
    22.3212  22.4888  22.8086  23.4020  24.1359  25.9274  26.1304  26.8084
    27.3874  27.3935

          k = 0.2000 0.1155 0.1808 (  5078 PWs)   bands (ev):

   -47.3105 -47.2782 -47.2749 -47.2698 -47.2563 -47.2560 -27.5399 -27.5384
   -18.4447 -18.4126 -18.3769 -18.3692 -18.3228 -18.3028 -18.2912 -18.2639
   -18.2553 -18.1985 -18.1154 -18.1046 -18.0738 -18.0665 -18.0561 -18.0442
   -18.0415 -18.0219  -5.7808  -5.7703  -5.7545  -5.7507  -5.7421  -5.7336
    14.3533  14.7817  14.8860  14.9190  14.9269  14.9729  14.9783  14.9903
    15.8860  15.9266  15.9304  16.5535  16.5813  16.7259  16.7499  16.9826
    17.2746  17.2816  17.4174  17.4582  17.5163  17.7196  17.7209  17.8025
    18.2197  18.2373  18.8034  18.8790  19.1806  19.2279  19.6156  19.7402
    19.9228  20.0528  21.1829  21.2749  21.4639  21.7336  21.8388  21.8483
    22.0837  22.4808  22.6789  22.8664  24.0762  25.7927  25.8744  26.2383
    27.3176  27.4509

          k = 0.2000 0.1155 0.3616 (  5067 PWs)   bands (ev):

   -47.3046 -47.2748 -47.2727 -47.2726 -47.2595 -47.2577 -27.5401 -27.5390
   -18.4218 -18.4190 -18.4000 -18.3963 -18.3468 -18.3361 -18.2922 -18.2193
   -18.1882 -18.1534 -18.1211 -18.1155 -18.0879 -18.0665 -18.0658 -18.0451
   -18.0383 -18.0235  -5.7798  -5.7746  -5.7500  -5.7461  -5.7411  -5.7338
    14.6810  14.7452  14.7588  14.8065  15.0647  15.1308  15.1703  15.1898
    15.9474  15.9953  16.0532  16.1821  16.2056  16.2810  16.7584  17.0022
    17.0311  17.0937  17.2744  17.4270  17.4515  17.6511  18.0636  18.2000
    18.5375  18.5597  18.7373  18.9937  19.2577  19.5787  19.5924  19.8991
    20.0102  20.0904  20.9002  21.2558  21.3306  21.3428  21.4897  21.9095
    22.0806  22.1051  22.6014  22.6195  23.7561  24.7922  25.1764  25.2009
    27.3387  27.6560

          k = 0.2000 0.1155 0.5424 (  5053 PWs)   bands (ev):

   -47.2923 -47.2812 -47.2687 -47.2679 -47.2643 -47.2637 -27.5400 -27.5397
   -18.4215 -18.4161 -18.4004 -18.3991 -18.3831 -18.3776 -18.2332 -18.1808
   -18.1659 -18.1455 -18.1332 -18.1079 -18.1033 -18.0752 -18.0567 -18.0480
   -18.0348 -18.0260  -5.7790  -5.7784  -5.7444  -5.7411  -5.7402  -5.7361
    14.7761  14.8421  14.8440  15.0530  15.1263  15.1965  15.3549  15.3802
    15.6730  15.7019  15.7651  15.9777  16.0582  16.0844  16.7753  16.8186
    17.1827  17.2591  17.2817  17.4053  17.8170  18.0320  18.0594  18.1846
    18.5357  18.5521  18.8305  18.9164  19.3139  19.4031  19.5399  19.8104
    20.2181  20.4788  20.7788  21.0644  21.1094  21.2455  21.4683  21.7218
    21.8518  22.3273  22.4194  23.2940  23.3387  23.8473  24.2787  24.3878
    27.7280  28.0336

          k = 0.2000 0.3079 0.0000 (  5075 PWs)   bands (ev):

   -47.3081 -47.2823 -47.2778 -47.2659 -47.2558 -47.2554 -27.5399 -27.5387
   -18.4478 -18.3811 -18.3279 -18.3209 -18.3195 -18.3158 -18.3024 -18.2660
   -18.2271 -18.2205 -18.1265 -18.1156 -18.1092 -18.1042 -18.0653 -18.0422
   -18.0349 -18.0301  -5.7783  -5.7682  -5.7627  -5.7603  -5.7488  -5.7383
    14.5791  14.9975  15.0471  15.1252  15.1410  15.3136  15.4932  15.5103
    15.5885  15.6120  15.8505  16.5346  16.5983  16.7448  16.9381  17.2730
    17.3420  17.4069  17.4736  17.5107  17.5937  17.6039  17.6420  17.7368
    17.9703  18.1323  18.1688  18.1868  18.4066  18.5487  19.3522  19.5693
    19.7546  19.9842  20.7836  20.9258  21.2912  21.5274  21.6005  21.9687
    22.1543  22.1666  22.1756  24.5530  24.6017  25.4323  26.4832  26.9645
    27.8918  28.0443

          k = 0.2000 0.3079 0.1808 (  5088 PWs)   bands (ev):

   -47.3053 -47.2823 -47.2791 -47.2678 -47.2578 -47.2569 -27.5400 -27.5389
   -18.4321 -18.3866 -18.3748 -18.3563 -18.3064 -18.2975 -18.2702 -18.2673
   -18.2449 -18.2027 -18.1320 -18.1268 -18.0977 -18.0952 -18.0697 -18.0450
   -18.0407 -18.0360  -5.7806  -5.7720  -5.7600  -5.7589  -5.7479  -5.7388
    14.7258  15.0155  15.0581  15.0616  15.1974  15.2212  15.2380  15.4014
    15.9788  16.0329  16.0466  16.4421  16.5269  16.6938  16.7299  16.8561
    17.1420  17.1558  17.3622  17.4879  17.5506  17.6678  17.7033  17.8578
    17.9278  18.2942  18.3921  18.5130  18.6140  18.8222  19.3018  19.5524
    19.6962  19.7296  20.7052  21.0143  21.2680  21.3926  21.6900  21.7975
    21.9928  22.0824  22.1818  23.8566  24.6640  25.4508  26.1651  26.6538
    27.3820  27.7350

          k = 0.2000 0.3079 0.3616 (  5068 PWs)   bands (ev):

   -47.3004 -47.2766 -47.2758 -47.2702 -47.2604 -47.2597 -27.5402 -27.5395
   -18.4059 -18.3984 -18.3938 -18.3715 -18.3261 -18.3183 -18.2654 -18.2432
   -18.1923 -18.1551 -18.1493 -18.1334 -18.0911 -18.0830 -18.0768 -18.0609
   -18.0410 -18.0343  -5.7807  -5.7773  -5.7541  -5.7533  -5.7452  -5.7391
    14.8882  14.9612  15.0001  15.1146  15.3488  15.4058  15.4234  15.6219
    15.9220  16.0169  16.0725  16.3092  16.3462  16.4367  16.6372  16.8138
    16.8977  16.9878  17.2922  17.4356  17.4572  17.7308  17.9072  17.9898
    18.0338  18.5545  18.6274  18.6396  18.8934  19.0240  19.1435  19.2701
    19.8530  19.8916  20.4541  20.8247  21.0951  21.2448  21.3943  21.8021
    21.9440  22.0751  22.3671  22.7812  24.7734  24.8418  25.0658  25.4807
    27.7776  28.0456

          k = 0.2000 0.3079 0.5424 (  5058 PWs)   bands (ev):

   -47.2906 -47.2805 -47.2712 -47.2683 -47.2653 -47.2637 -27.5403 -27.5400
   -18.4042 -18.4025 -18.3891 -18.3839 -18.3506 -18.3463 -18.2288 -18.2109
   -18.1768 -18.1705 -18.1376 -18.1134 -18.0927 -18.0877 -18.0847 -18.0624
   -18.0414 -18.0341  -5.7813  -5.7801  -5.7497  -5.7495  -5.7427  -5.7406
    14.9740  15.0436  15.1108  15.2874  15.3189  15.4634  15.6336  15.6965
    15.7890  15.8856  15.9584  16.1472  16.2631  16.3483  16.5253  16.6363
    17.0492  17.0865  17.3839  17.5113  17.6598  17.8517  17.8752  17.9369
    18.1535  18.2238  18.5629  18.5866  18.8628  19.0366  19.3946  19.4535
    19.7719  19.8150  20.7150  20.7508  21.0754  21.1493  21.3539  21.5808
    21.9999  22.2834  22.3541  22.6044  23.3949  23.5536  25.1993  25.4248
    27.8783  27.9982

          k = 0.2000 0.5004 0.0000 (  5072 PWs)   bands (ev):

   -47.3012 -47.2870 -47.2817 -47.2639 -47.2570 -47.2541 -27.5398 -27.5393
   -18.4354 -18.3435 -18.3323 -18.3228 -18.3098 -18.2942 -18.2742 -18.2567
   -18.2175 -18.1857 -18.1654 -18.1431 -18.1272 -18.1147 -18.0962 -18.0661
   -18.0416 -18.0246  -5.7756  -5.7706  -5.7699  -5.7619  -5.7559  -5.7438
    15.0706  15.1571  15.3022  15.4342  15.4677  15.5983  15.7054  15.7708
    15.8963  16.0421  16.1038  16.3111  16.5062  16.5583  16.6527  16.6970
    16.9271  16.9561  17.1608  17.3565  17.5442  17.5616  17.6460  17.7128
    17.8401  18.1169  18.1257  18.3441  18.3653  18.5068  18.8510  19.3978
    19.6131  19.9126  20.4295  20.6698  20.8490  21.1561  21.5743  21.7496
    21.9409  21.9544  22.0504  24.8202  25.4816  26.1228  26.2809  26.5122
    27.5370  27.8294

          k = 0.2000 0.5004 0.1808 (  5079 PWs)   bands (ev):

   -47.2996 -47.2863 -47.2806 -47.2653 -47.2586 -47.2567 -27.5400 -27.5395
   -18.4242 -18.3734 -18.3504 -18.3326 -18.3120 -18.2805 -18.2585 -18.2380
   -18.2128 -18.1948 -18.1883 -18.1636 -18.1086 -18.1004 -18.0819 -18.0652
   -18.0407 -18.0391  -5.7782  -5.7745  -5.7670  -5.7592  -5.7543  -5.7443
    15.1662  15.2058  15.2925  15.4401  15.5071  15.5132  15.6686  15.8904
    15.9540  16.0642  16.1668  16.2475  16.3595  16.4671  16.6126  16.7656
    17.0325  17.0865  17.0988  17.2850  17.4499  17.6256  17.7452  17.8048
    17.8764  17.9192  18.1039  18.3519  18.5647  18.6011  18.9077  19.4104
    19.4623  19.5621  20.4877  20.6735  20.9310  21.1677  21.4952  21.6366
    21.6864  21.9762  22.0632  24.9834  25.0438  25.6390  25.7716  26.4625
    26.9979  27.9674

          k = 0.2000 0.5004 0.3616 (  5085 PWs)   bands (ev):

   -47.2941 -47.2832 -47.2784 -47.2682 -47.2638 -47.2612 -27.5403 -27.5400
   -18.3956 -18.3910 -18.3757 -18.3470 -18.3173 -18.3018 -18.2466 -18.2241
   -18.2016 -18.1955 -18.1749 -18.1634 -18.1159 -18.0861 -18.0740 -18.0627
   -18.0608 -18.0413  -5.7824  -5.7804  -5.7618  -5.7548  -5.7518  -5.7441
    15.2004  15.3182  15.3700  15.3869  15.6401  15.7178  15.7635  15.7836
    15.9481  16.0167  16.0504  16.2536  16.4246  16.5340  16.7247  16.8664
    16.9601  17.0523  17.0772  17.2189  17.3963  17.4949  17.6456  17.7401
    17.8982  18.1231  18.2286  18.3342  18.6121  18.8370  18.9005  19.1120
    19.2966  19.7341  20.4543  20.5445  20.9377  21.1161  21.3056  21.4644
    21.4913  22.1171  22.1993  23.5790  24.3313  24.9272  25.4196  26.1548
    27.8097  28.3012

          k = 0.2000 0.5004 0.5424 (  5080 PWs)   bands (ev):

   -47.2858 -47.2809 -47.2760 -47.2711 -47.2674 -47.2653 -27.5405 -27.5404
   -18.3964 -18.3828 -18.3755 -18.3544 -18.3284 -18.3120 -18.2352 -18.2255
   -18.2077 -18.1978 -18.1478 -18.1373 -18.1118 -18.1067 -18.0802 -18.0640
   -18.0524 -18.0451  -5.7838  -5.7830  -5.7567  -5.7537  -5.7481  -5.7452
    15.2710  15.3833  15.4233  15.4761  15.5667  15.6146  15.6423  15.8158
    16.1290  16.1969  16.2422  16.3574  16.4546  16.5474  16.7630  16.7691
    16.9132  17.1124  17.1711  17.2062  17.2754  17.4415  17.5790  17.5818
    17.7341  17.9691  18.2966  18.4119  18.5018  18.6903  18.9780  19.0944
    19.4650  19.7349  20.6546  20.7844  20.9387  21.0184  21.3310  21.3935
    21.8088  22.1426  22.2812  22.6721  22.9717  23.4829  26.0227  26.5591
    27.7904  28.3377

          k = 0.2000-0.4619 0.0000 (  5078 PWs)   bands (ev):

   -47.3025 -47.2864 -47.2817 -47.2642 -47.2573 -47.2546 -27.5399 -27.5392
   -18.4395 -18.3480 -18.3336 -18.3229 -18.3102 -18.2972 -18.2808 -18.2566
   -18.2226 -18.1823 -18.1688 -18.1387 -18.1282 -18.1124 -18.0925 -18.0594
   -18.0425 -18.0262  -5.7763  -5.7705  -5.7692  -5.7623  -5.7549  -5.7430
    15.0507  15.0769  15.2488  15.3891  15.4256  15.5540  15.6865  15.7374
    15.7938  15.9390  16.0800  16.3248  16.5970  16.6503  16.6808  16.8308
    16.9294  17.0400  17.1992  17.3696  17.5493  17.5631  17.6559  17.7310
    17.8360  18.1338  18.1551  18.3138  18.3262  18.4887  18.9441  19.4136
    19.6238  19.9213  20.4622  20.7036  20.9039  21.2299  21.6409  21.7206
    21.9432  21.9918  22.0647  24.8105  25.4345  25.8172  26.3005  26.5799
    27.8205  27.8669

          k = 0.2000-0.4619 0.1808 (  5075 PWs)   bands (ev):

   -47.3000 -47.2851 -47.2805 -47.2655 -47.2579 -47.2566 -27.5400 -27.5394
   -18.4244 -18.3729 -18.3549 -18.3358 -18.3064 -18.2852 -18.2590 -18.2460
   -18.2091 -18.2038 -18.1770 -18.1548 -18.1064 -18.1006 -18.0801 -18.0594
   -18.0407 -18.0395  -5.7787  -5.7737  -5.7660  -5.7592  -5.7530  -5.7430
    15.1317  15.1529  15.2445  15.3653  15.4532  15.4763  15.5825  15.8311
    15.9512  16.0662  16.1529  16.2926  16.3864  16.5314  16.6524  16.7848
    17.0509  17.0755  17.1320  17.3278  17.4848  17.5974  17.7360  17.8229
    17.8983  17.9773  18.1820  18.3172  18.5530  18.6239  18.9671  19.4210
    19.4937  19.5822  20.5402  20.6588  20.9824  21.2313  21.5648  21.6552
    21.6992  21.9768  22.0650  24.7965  25.0056  25.5646  25.8923  26.4728
    27.0945  27.9564

          k = 0.2000-0.4619 0.3616 (  5078 PWs)   bands (ev):

   -47.2948 -47.2814 -47.2778 -47.2685 -47.2629 -47.2612 -27.5403 -27.5399
   -18.3953 -18.3917 -18.3790 -18.3513 -18.3157 -18.3047 -18.2503 -18.2326
   -18.1992 -18.1875 -18.1678 -18.1582 -18.1099 -18.0867 -18.0728 -18.0613
   -18.0581 -18.0393  -5.7822  -5.7794  -5.7607  -5.7546  -5.7501  -5.7436
    15.1397  15.2594  15.2884  15.3568  15.6091  15.6695  15.7833  15.8170
    15.8698  16.0116  16.0627  16.2965  16.3345  16.5166  16.7257  16.8698
    16.9597  17.0028  17.1497  17.2326  17.4261  17.5001  17.6961  17.7612
    17.9944  18.1949  18.2763  18.3428  18.6667  18.8757  18.8913  19.0994
    19.3822  19.7496  20.4730  20.5474  20.9519  21.1223  21.3212  21.5334
    21.5876  22.0853  22.2098  23.4255  24.4617  24.9126  25.4106  25.9909
    27.7949  28.3694

          k = 0.2000-0.4619 0.5424 (  5069 PWs)   bands (ev):

   -47.2866 -47.2802 -47.2745 -47.2700 -47.2668 -47.2648 -27.5405 -27.5403
   -18.3978 -18.3838 -18.3771 -18.3615 -18.3281 -18.3152 -18.2345 -18.2262
   -18.2023 -18.1898 -18.1447 -18.1305 -18.1080 -18.1025 -18.0808 -18.0623
   -18.0505 -18.0427  -5.7832  -5.7825  -5.7552  -5.7526  -5.7467  -5.7447
    15.2105  15.3165  15.3817  15.4487  15.5294  15.6096  15.6720  15.8467
    16.0645  16.1225  16.2061  16.3581  16.3861  16.4648  16.7052  16.7253
    16.9241  17.0816  17.2421  17.3380  17.3605  17.4888  17.6190  17.6433
    17.8026  17.9763  18.3565  18.4462  18.5653  18.7049  19.0150  19.1654
    19.4688  19.7391  20.6598  20.7783  20.9527  21.0171  21.3468  21.4595
    21.8754  22.1516  22.2528  22.6210  23.0634  23.4695  25.9540  26.3559
    27.8084  28.2722

          k = 0.2000-0.2694 0.0000 (  5077 PWs)   bands (ev):

   -47.3084 -47.2823 -47.2776 -47.2665 -47.2558 -47.2554 -27.5399 -27.5386
   -18.4499 -18.3892 -18.3275 -18.3239 -18.3191 -18.3188 -18.3099 -18.2704
   -18.2378 -18.2182 -18.1256 -18.1087 -18.1052 -18.0942 -18.0630 -18.0404
   -18.0306 -18.0298  -5.7789  -5.7675  -5.7615  -5.7594  -5.7473  -5.7370
    14.4755  14.9209  14.9965  15.0706  15.1423  15.2068  15.4401  15.4552
    15.5673  15.5693  15.7783  16.5886  16.5973  16.7427  16.9351  17.3520
    17.4132  17.4593  17.5017  17.5656  17.6308  17.6344  17.7019  17.7627
    18.0116  18.0968  18.1245  18.1910  18.4449  18.6576  19.4232  19.6364
    19.8170  20.0042  20.8532  21.0687  21.3152  21.5727  21.6394  22.0281
    22.1804  22.2075  22.3107  24.3193  24.4401  25.5064  26.5467  27.0426
    27.6846  27.8700

          k = 0.2000-0.2694 0.1808 (  5087 PWs)   bands (ev):

   -47.3069 -47.2813 -47.2779 -47.2684 -47.2576 -47.2568 -27.5400 -27.5388
   -18.4351 -18.3927 -18.3749 -18.3596 -18.3119 -18.2997 -18.2728 -18.2692
   -18.2517 -18.2010 -18.1229 -18.1220 -18.0956 -18.0891 -18.0655 -18.0476
   -18.0395 -18.0302  -5.7807  -5.7716  -5.7590  -5.7571  -5.7470  -5.7372
    14.6297  14.9483  15.0140  15.0324  15.1278  15.1563  15.1736  15.2953
    15.9740  15.9997  16.0216  16.4632  16.5758  16.6659  16.7458  16.8949
    17.1683  17.1984  17.3828  17.4874  17.5921  17.6336  17.7055  17.8899
    17.9610  18.2830  18.5085  18.5690  18.7090  18.9195  19.3799  19.5926
    19.7466  19.7941  20.7734  21.1660  21.2969  21.4160  21.7356  21.8364
    22.0104  22.1260  22.3057  23.6252  24.5082  25.5030  26.1858  26.6978
    27.2807  27.6661

          k = 0.2000-0.2694 0.3616 (  5068 PWs)   bands (ev):

   -47.3014 -47.2758 -47.2751 -47.2710 -47.2605 -47.2592 -27.5402 -27.5394
   -18.4097 -18.4042 -18.3948 -18.3769 -18.3331 -18.3214 -18.2742 -18.2386
   -18.1909 -18.1535 -18.1405 -18.1283 -18.0897 -18.0767 -18.0751 -18.0623
   -18.0393 -18.0308  -5.7802  -5.7765  -5.7534  -5.7518  -5.7445  -5.7379
    14.8316  14.9034  14.9390  15.0397  15.2734  15.3360  15.3573  15.5205
    15.9290  16.0125  16.0672  16.2854  16.3393  16.4553  16.5773  16.8712
    16.9228  16.9993  17.3128  17.4236  17.4565  17.7304  17.9280  18.0522
    18.1564  18.5744  18.6646  18.7581  18.9260  19.1448  19.2528  19.3620
    19.8976  20.0076  20.4870  20.9058  21.1350  21.3270  21.4255  21.7350
    21.9975  22.1684  22.4535  22.6426  24.5729  24.7992  25.1221  25.4442
    27.6543  27.9809

          k = 0.2000-0.2694 0.5424 (  5058 PWs)   bands (ev):

   -47.2915 -47.2811 -47.2710 -47.2676 -47.2652 -47.2632 -27.5402 -27.5399
   -18.4089 -18.4018 -18.3932 -18.3862 -18.3611 -18.3544 -18.2297 -18.2042
   -18.1688 -18.1676 -18.1367 -18.1133 -18.0940 -18.0818 -18.0791 -18.0632
   -18.0391 -18.0346  -5.7812  -5.7797  -5.7485  -5.7480  -5.7420  -5.7393
    14.9220  14.9872  15.0466  15.2337  15.2669  15.4084  15.5714  15.6183
    15.7579  15.8484  15.8893  16.0988  16.2225  16.2880  16.5756  16.6516
    17.0980  17.1338  17.3764  17.4722  17.6869  17.8892  17.9333  18.0025
    18.2909  18.3560  18.6066  18.6312  18.9471  19.1121  19.4189  19.6094
    19.8094  19.9689  20.7191  20.7766  21.1183  21.2157  21.3502  21.5523
    21.9699  22.3212  22.3452  22.7516  23.3827  23.7043  24.8932  25.2243
    27.8310  28.0515

          k = 0.2000-0.0770 0.0000 (  5083 PWs)   bands (ev):

   -47.3121 -47.2802 -47.2761 -47.2678 -47.2558 -47.2549 -27.5398 -27.5381
   -18.4606 -18.4150 -18.3289 -18.3249 -18.3235 -18.3220 -18.3197 -18.2833
   -18.2722 -18.2145 -18.1232 -18.1116 -18.0668 -18.0602 -18.0467 -18.0396
   -18.0389 -18.0210  -5.7815  -5.7667  -5.7556  -5.7523  -5.7412  -5.7343
    14.1427  14.7188  14.8064  14.8342  14.8521  15.1933  15.2626  15.3506
    15.3935  15.4593  15.5141  16.5350  16.7588  16.8286  16.8730  17.3184
    17.3961  17.5427  17.5939  17.7105  17.7722  17.8605  17.8690  17.9229
    18.1348  18.1557  18.1814  18.1911  18.8184  19.0276  19.6813  19.8611
    20.0878  20.2264  21.2643  21.3629  21.4578  21.5975  21.7824  22.2927
    22.3315  22.5739  22.8805  23.2616  24.1732  25.7050  26.2151  26.7712
    27.2684  27.4143

          k = 0.2000-0.0770 0.1808 (  5080 PWs)   bands (ev):

   -47.3102 -47.2779 -47.2755 -47.2697 -47.2567 -47.2562 -27.5399 -27.5384
   -18.4456 -18.4175 -18.3774 -18.3715 -18.3239 -18.3056 -18.2941 -18.2634
   -18.2564 -18.1998 -18.1150 -18.1051 -18.0683 -18.0653 -18.0544 -18.0454
   -18.0364 -18.0211  -5.7811  -5.7701  -5.7537  -5.7503  -5.7403  -5.7340
    14.3169  14.7716  14.8539  14.8924  14.9057  14.9406  14.9565  14.9624
    15.8691  15.9161  15.9169  16.5634  16.5924  16.7072  16.7635  16.9985
    17.2666  17.2939  17.4323  17.4536  17.5144  17.7017  17.7405  17.8001
    18.2183  18.2579  18.8508  18.9298  19.2331  19.2976  19.6583  19.7719
    19.9195  20.1190  21.2190  21.3468  21.4683  21.7068  21.8560  21.9199
    22.0912  22.5168  22.7254  22.7625  24.0865  25.5791  25.9284  26.1999
    27.3301  27.4064

          k = 0.2000-0.0770 0.3616 (  5063 PWs)   bands (ev):

   -47.3051 -47.2745 -47.2724 -47.2721 -47.2589 -47.2578 -27.5400 -27.5390
   -18.4222 -18.4201 -18.4016 -18.3974 -18.3475 -18.3378 -18.2936 -18.2152
   -18.1869 -18.1546 -18.1207 -18.1129 -18.0876 -18.0654 -18.0623 -18.0461
   -18.0347 -18.0218  -5.7794  -5.7745  -5.7486  -5.7454  -5.7402  -5.7337
    14.6656  14.7186  14.7375  14.7745  15.0465  15.1016  15.1227  15.1605
    15.9515  15.9920  16.0503  16.1648  16.1845  16.2526  16.7857  17.0156
    17.0556  17.1106  17.2560  17.4061  17.4881  17.6397  18.0877  18.2020
    18.5439  18.5967  18.7507  19.0125  19.3285  19.6285  19.6876  19.9926
    19.9946  20.0956  20.9679  21.2517  21.2821  21.4478  21.5621  21.9376
    22.0352  22.2193  22.4991  22.6057  23.7172  24.8178  25.1046  25.1192
    27.3767  27.6144

          k = 0.2000-0.0770 0.5424 (  5055 PWs)   bands (ev):

   -47.2928 -47.2816 -47.2690 -47.2685 -47.2640 -47.2628 -27.5400 -27.5396
   -18.4232 -18.4171 -18.4054 -18.4014 -18.3861 -18.3791 -18.2337 -18.1763
   -18.1659 -18.1428 -18.1327 -18.1097 -18.1019 -18.0769 -18.0539 -18.0458
   -18.0334 -18.0271  -5.7793  -5.7780  -5.7437  -5.7405  -5.7397  -5.7357
    14.7605  14.8113  14.8258  15.0329  15.0984  15.1680  15.3243  15.3478
    15.6606  15.6856  15.7504  15.9626  16.0304  16.0606  16.8010  16.8561
    17.1711  17.2518  17.2850  17.4152  17.8443  18.0559  18.0780  18.2018
    18.5518  18.5666  18.8487  18.9479  19.3886  19.4543  19.5937  19.8046
    20.3148  20.5336  20.7918  21.0031  21.1847  21.2644  21.5056  21.7424
    21.8856  22.4056  22.4126  23.1501  23.4062  23.8210  24.1389  24.4242
    27.7056  27.9839

          k = 0.4000 0.2309 0.0000 (  5085 PWs)   bands (ev):

   -47.3049 -47.2876 -47.2776 -47.2677 -47.2555 -47.2553 -27.5399 -27.5390
   -18.4439 -18.3608 -18.3381 -18.3244 -18.3178 -18.3012 -18.2822 -18.2420
   -18.2134 -18.2104 -18.1502 -18.1320 -18.1223 -18.1190 -18.1107 -18.0593
   -18.0289 -18.0207  -5.7776  -5.7702  -5.7700  -5.7594  -5.7569  -5.7379
    14.8502  15.0489  15.2165  15.2694  15.2838  15.3666  15.5343  15.5506
    15.9039  15.9064  15.9751  16.5126  16.6273  16.6581  16.9883  17.0012
    17.0936  17.1338  17.1809  17.4517  17.6329  17.6743  17.6924  17.7225
    17.8800  18.0677  18.1325  18.1853  18.3227  18.4188  18.8909  19.5777
    19.7221  19.9473  20.4867  20.6982  20.8587  20.9418  21.7350  22.0485
    22.1062  22.2682  22.3439  24.1500  25.3925  26.3370  26.4886  27.0785
    27.5147  27.7090

          k = 0.4000 0.2309 0.1808 (  5088 PWs)   bands (ev):

   -47.3036 -47.2868 -47.2766 -47.2689 -47.2580 -47.2555 -27.5400 -27.5392
   -18.4291 -18.3879 -18.3450 -18.3450 -18.3174 -18.2799 -18.2627 -18.2428
   -18.2251 -18.2039 -18.1528 -18.1400 -18.1337 -18.1025 -18.0876 -18.0575
   -18.0440 -18.0238  -5.7802  -5.7741  -5.7654  -5.7578  -5.7553  -5.7381
    14.9280  15.0623  15.2225  15.2466  15.2725  15.3327  15.6057  15.6177
    15.9549  16.0168  16.2356  16.3299  16.4992  16.5799  16.7635  16.9728
    16.9808  17.1942  17.2074  17.3790  17.5610  17.5949  17.6995  17.8738
    17.8857  18.1450  18.2764  18.3274  18.3754  18.6819  18.8837  19.4789
    19.5127  19.8651  20.4473  20.8158  20.8200  21.0132  21.6352  21.6560
    21.7725  22.4863  22.5132  24.2981  24.4744  25.7291  26.5380  26.8967
    27.3717  27.7614

          k = 0.4000 0.2309 0.3616 (  5084 PWs)   bands (ev):

   -47.2965 -47.2830 -47.2743 -47.2716 -47.2626 -47.2599 -27.5403 -27.5398
   -18.4129 -18.4035 -18.3721 -18.3575 -18.3216 -18.2958 -18.2579 -18.2460
   -18.2074 -18.1693 -18.1525 -18.1439 -18.1329 -18.0814 -18.0743 -18.0639
   -18.0503 -18.0291  -5.7831  -5.7786  -5.7593  -5.7538  -5.7525  -5.7381
    14.9831  15.1448  15.2112  15.2136  15.4358  15.5742  15.7365  15.7657
    15.8351  16.0266  16.1736  16.3447  16.3846  16.4805  16.7797  16.8684
    16.8708  16.9464  17.2694  17.4804  17.5133  17.5407  17.6379  17.8609
    18.0376  18.2596  18.2679  18.5439  18.7224  18.7827  18.9560  19.0427
    19.5156  20.0478  20.3774  20.6486  20.7536  21.0984  21.3331  21.3793
    21.4481  22.6728  22.9604  23.1417  24.2392  24.4680  25.9017  26.1126
    27.2641  28.3299

          k = 0.4000 0.2309 0.5424 (  5068 PWs)   bands (ev):

   -47.2874 -47.2806 -47.2727 -47.2697 -47.2682 -47.2641 -27.5404 -27.5402
   -18.4136 -18.4047 -18.3709 -18.3418 -18.3401 -18.3223 -18.2300 -18.2256
   -18.1980 -18.1928 -18.1463 -18.1413 -18.0984 -18.0896 -18.0831 -18.0599
   -18.0444 -18.0347  -5.7829  -5.7818  -5.7552  -5.7533  -5.7452  -5.7402
    15.1072  15.2198  15.2816  15.3856  15.4180  15.5178  15.5536  15.8271
    15.9556  16.1338  16.1929  16.2443  16.3585  16.4726  16.6120  16.6498
    17.0229  17.1549  17.4557  17.4734  17.5571  17.6396  17.7206  17.8008
    17.8733  18.0040  18.2551  18.4029  18.5969  18.6136  19.2807  19.3086
    19.4819  19.8227  20.6089  20.8223  20.8282  20.9833  21.2413  21.2940
    21.7599  22.2390  22.4700  22.8750  23.7378  24.5974  24.8425  24.9814
    28.1267  28.8196

          k = 0.4000 0.4234 0.0000 (  5078 PWs)   bands (ev):

   -47.3006 -47.2890 -47.2815 -47.2644 -47.2570 -47.2543 -27.5398 -27.5393
   -18.4352 -18.3442 -18.3344 -18.3214 -18.3172 -18.2909 -18.2655 -18.2575
   -18.2105 -18.1878 -18.1625 -18.1509 -18.1302 -18.1152 -18.1128 -18.0646
   -18.0371 -18.0261  -5.7759  -5.7713  -5.7712  -5.7614  -5.7582  -5.7425
    15.0874  15.1883  15.3273  15.3870  15.4154  15.6350  15.7002  15.8154
    15.9552  16.0801  16.1710  16.3998  16.4454  16.5103  16.6270  16.6292
    16.9071  16.9754  17.0944  17.3634  17.5931  17.5938  17.6445  17.7094
    17.8147  18.0742  18.1105  18.3339  18.4219  18.4766  18.7504  19.4783
    19.5887  19.9113  20.4208  20.5167  20.8836  20.9692  21.6867  21.7843
    21.9385  22.0410  22.0629  24.6728  25.6623  26.3029  26.3685  26.6248
    27.1020  27.7575

          k = 0.4000 0.4234 0.1808 (  5071 PWs)   bands (ev):

   -47.2988 -47.2873 -47.2797 -47.2654 -47.2572 -47.2561 -27.5400 -27.5395
   -18.4220 -18.3766 -18.3440 -18.3261 -18.3205 -18.2704 -18.2597 -18.2243
   -18.2161 -18.1899 -18.1874 -18.1694 -18.1175 -18.0991 -18.0839 -18.0664
   -18.0386 -18.0371  -5.7778  -5.7742  -5.7668  -5.7586  -5.7558  -5.7435
    15.1854  15.1924  15.2974  15.4678  15.4783  15.5384  15.7324  15.8951
    15.9902  16.0861  16.1215  16.2993  16.3863  16.4397  16.5442  16.7845
    16.9988  17.0724  17.1781  17.2440  17.4514  17.6679  17.7350  17.7814
    17.8868  17.9229  17.9979  18.3974  18.5421  18.5905  18.8184  19.4164
    19.4422  19.6221  20.4135  20.6644  20.8998  21.0084  21.4994  21.6463
    21.6802  22.0775  22.1820  24.8549  25.2192  25.5066  25.8467  26.6338
    27.0621  27.9199

          k = 0.4000 0.4234 0.3616 (  5075 PWs)   bands (ev):

   -47.2922 -47.2848 -47.2773 -47.2674 -47.2636 -47.2603 -27.5403 -27.5400
   -18.3978 -18.3911 -18.3706 -18.3421 -18.3157 -18.2941 -18.2466 -18.2158
   -18.2064 -18.1958 -18.1728 -18.1637 -18.1238 -18.0836 -18.0738 -18.0632
   -18.0589 -18.0382  -5.7822  -5.7802  -5.7618  -5.7545  -5.7524  -5.7424
    15.2296  15.2717  15.3957  15.4867  15.5914  15.6993  15.7107  15.7255
    16.0612  16.0743  16.1282  16.1868  16.4730  16.5287  16.7759  16.8886
    16.9502  16.9921  17.0498  17.2794  17.3984  17.5180  17.5991  17.7572
    17.8270  18.0389  18.2365  18.3374  18.5677  18.8313  18.8807  19.1168
    19.2243  19.8051  20.4075  20.5582  20.8669  21.0664  21.2914  21.3888
    21.4171  22.3141  22.3277  23.6689  24.1309  25.1159  25.2341  26.3855
    27.8796  27.9925

          k = 0.4000 0.4234 0.5424 (  5077 PWs)   bands (ev):

   -47.2834 -47.2818 -47.2756 -47.2711 -47.2685 -47.2651 -27.5405 -27.5404
   -18.4012 -18.3871 -18.3698 -18.3435 -18.3288 -18.3079 -18.2364 -18.2241
   -18.2088 -18.2066 -18.1474 -18.1457 -18.1066 -18.1055 -18.0802 -18.0625
   -18.0499 -18.0437  -5.7840  -5.7827  -5.7573  -5.7548  -5.7480  -5.7438
    15.3227  15.3814  15.4485  15.5026  15.5270  15.5562  15.6741  15.7461
    16.1641  16.1749  16.3524  16.3732  16.5092  16.6006  16.7661  16.7985
    16.9682  17.0559  17.0849  17.2719  17.3183  17.4377  17.5504  17.5917
    17.6445  17.9268  18.2661  18.3677  18.4284  18.6584  18.9950  19.0907
    19.4337  19.7675  20.6307  20.8001  20.8707  20.9887  21.2922  21.3072
    21.7467  22.2400  22.3788  22.8144  22.8802  23.6854  25.8029  26.4994
    27.8332  28.4371

          k = 0.4000 0.6158 0.0000 (  5071 PWs)   bands (ev):

   -47.2986 -47.2863 -47.2841 -47.2627 -47.2590 -47.2538 -27.5397 -27.5395
   -18.4332 -18.3362 -18.3309 -18.3274 -18.2968 -18.2852 -18.2765 -18.2665
   -18.2147 -18.2015 -18.1503 -18.1438 -18.1258 -18.1206 -18.0948 -18.0665
   -18.0524 -18.0239  -5.7751  -5.7718  -5.7708  -5.7605  -5.7573  -5.7456
    15.0402  15.3834  15.4441  15.5158  15.5966  15.6696  15.7379  15.8804
    16.0539  16.1159  16.1375  16.2053  16.2722  16.4023  16.4362  16.6859
    16.8292  16.8326  17.2265  17.3172  17.4425  17.5388  17.5819  17.6606
    17.9198  18.0710  18.1886  18.3890  18.4224  18.5295  18.8659  19.1944
    19.6301  19.8975  20.4961  20.6922  20.9144  21.0594  21.4129  21.6706
    21.7803  21.8807  22.0351  25.0929  25.3183  26.2097  26.2194  26.6807
    27.4445  27.8670

          k = 0.4000 0.6158 0.1808 (  5066 PWs)   bands (ev):

   -47.2968 -47.2850 -47.2830 -47.2627 -47.2587 -47.2567 -27.5399 -27.5396
   -18.4215 -18.3631 -18.3516 -18.3252 -18.3033 -18.2843 -18.2476 -18.2345
   -18.2133 -18.2016 -18.1811 -18.1723 -18.1038 -18.0947 -18.0836 -18.0683
   -18.0530 -18.0352  -5.7765  -5.7748  -5.7681  -5.7578  -5.7548  -5.7462
    15.1680  15.4012  15.4292  15.5175  15.6199  15.6636  15.7163  15.9506
    15.9914  16.0675  16.0899  16.1575  16.2095  16.3886  16.5695  16.7266
    17.0079  17.0435  17.1341  17.2001  17.3526  17.6544  17.6934  17.7784
    17.8302  17.8880  18.0942  18.4002  18.5295  18.5855  18.9929  19.3201
    19.4234  19.4726  20.5288  20.6971  21.0360  21.0987  21.3985  21.5612
    21.6745  21.8549  21.8589  25.2714  25.4140  25.5032  25.7447  26.1490
    26.7259  27.9981

          k = 0.4000 0.6158 0.3616 (  5090 PWs)   bands (ev):

   -47.2915 -47.2840 -47.2816 -47.2667 -47.2637 -47.2634 -27.5403 -27.5401
   -18.3891 -18.3870 -18.3783 -18.3380 -18.3205 -18.3109 -18.2307 -18.2144
   -18.2070 -18.1965 -18.1889 -18.1742 -18.1156 -18.0843 -18.0731 -18.0697
   -18.0591 -18.0490  -5.7824  -5.7811  -5.7626  -5.7541  -5.7525  -5.7478
    15.3531  15.4389  15.4749  15.5086  15.6126  15.7358  15.7821  15.8628
    15.8780  15.9864  16.0734  16.2563  16.4112  16.6319  16.6528  16.7464
    17.0238  17.0778  17.0923  17.2308  17.3872  17.4534  17.4809  17.6920
    17.7727  18.0419  18.0742  18.4618  18.5692  18.7414  18.9493  19.1213
    19.2924  19.5634  20.4778  20.5371  21.0752  21.1785  21.2798  21.4247
    21.4548  21.8785  21.9454  23.8859  24.3107  24.6223  25.7549  26.0895
    27.7591  28.6698

          k = 0.4000 0.6158 0.5424 (  5076 PWs)   bands (ev):

   -47.2831 -47.2804 -47.2775 -47.2711 -47.2669 -47.2663 -27.5405 -27.5405
   -18.3849 -18.3777 -18.3706 -18.3524 -18.3313 -18.3121 -18.2275 -18.2216
   -18.2121 -18.2046 -18.1483 -18.1400 -18.1211 -18.1055 -18.0762 -18.0683
   -18.0506 -18.0479  -5.7832  -5.7830  -5.7564  -5.7533  -5.7491  -5.7484
    15.3824  15.4615  15.5157  15.5647  15.5981  15.6256  15.6733  15.7418
    16.2280  16.2682  16.3573  16.3780  16.5824  16.6257  16.7469  16.8396
    16.8764  16.9408  17.0501  17.1260  17.2680  17.3570  17.3897  17.4214
    17.6829  18.0021  18.2331  18.2884  18.6183  18.7236  18.8938  18.9373
    19.5244  19.6592  20.6920  20.7625  21.0487  21.0884  21.3549  21.3895
    21.8121  21.9289  22.0494  22.7241  22.9510  23.1994  26.5258  26.9074
    27.8648  28.2948

          k = 0.4000-0.3464 0.0000 (  5079 PWs)   bands (ev):

   -47.3017 -47.2895 -47.2797 -47.2658 -47.2562 -47.2542 -27.5399 -27.5392
   -18.4357 -18.3534 -18.3360 -18.3266 -18.3198 -18.2922 -18.2696 -18.2518
   -18.2070 -18.1827 -18.1670 -18.1470 -18.1321 -18.1178 -18.1141 -18.0605
   -18.0265 -18.0261  -5.7765  -5.7707  -5.7704  -5.7610  -5.7578  -5.7404
    15.0350  15.1479  15.1987  15.2910  15.3820  15.4735  15.6411  15.8029
    15.8647  16.0280  16.1149  16.4700  16.5834  16.6406  16.6719  16.8263
    16.9939  17.0465  17.0669  17.3990  17.6364  17.6698  17.6917  17.7234
    17.7908  18.0426  18.1235  18.2064  18.3887  18.4574  18.7817  19.5625
    19.6228  19.9261  20.4002  20.5518  20.7718  20.9509  21.7767  21.9960
    22.0023  22.0542  22.2543  24.3823  25.9563  25.9706  26.3945  27.0156
    27.1887  27.6504

          k = 0.4000-0.3464 0.1808 (  5074 PWs)   bands (ev):

   -47.2999 -47.2876 -47.2775 -47.2671 -47.2574 -47.2558 -27.5400 -27.5394
   -18.4250 -18.3820 -18.3419 -18.3341 -18.3169 -18.2776 -18.2597 -18.2307
   -18.2102 -18.2006 -18.1731 -18.1619 -18.1266 -18.1022 -18.0845 -18.0580
   -18.0403 -18.0288  -5.7790  -5.7739  -5.7662  -5.7587  -5.7561  -5.7397
    15.0642  15.1742  15.2246  15.3645  15.4023  15.4200  15.7029  15.8132
    15.9704  16.0479  16.2225  16.3048  16.4572  16.5137  16.6132  16.8615
    17.0407  17.1395  17.1464  17.3045  17.5037  17.6371  17.7432  17.8062
    17.8622  17.9924  18.1136  18.3633  18.4369  18.6447  18.8009  19.4300
    19.4616  19.7632  20.3894  20.6644  20.8150  20.9828  21.5918  21.6582
    21.7069  22.3066  22.3862  24.5581  24.8997  25.5643  26.1351  26.9827
    27.4056  27.6411

          k = 0.4000-0.3464 0.3616 (  5081 PWs)   bands (ev):

   -47.2935 -47.2844 -47.2755 -47.2699 -47.2638 -47.2600 -27.5403 -27.5399
   -18.4066 -18.3971 -18.3686 -18.3489 -18.3145 -18.2903 -18.2597 -18.2286
   -18.2096 -18.1854 -18.1638 -18.1605 -18.1265 -18.0830 -18.0740 -18.0626
   -18.0539 -18.0321  -5.7829  -5.7798  -5.7613  -5.7549  -5.7525  -5.7397
    15.1056  15.2159  15.3140  15.3645  15.5676  15.6412  15.6884  15.7208
    15.9852  16.1667  16.1725  16.2646  16.3389  16.5420  16.7571  16.9121
    16.9297  17.0045  17.2021  17.2855  17.4082  17.5249  17.6923  17.7679
    17.9160  18.0698  18.2565  18.4169  18.6337  18.8048  18.8836  19.0308
    19.3341  19.9492  20.3738  20.5692  20.7620  21.0375  21.3032  21.3802
    21.4295  22.5421  22.6722  23.4419  24.1361  24.8440  25.4889  26.4386
    27.4734  28.2529

          k = 0.4000-0.3464 0.5424 (  5079 PWs)   bands (ev):

   -47.2859 -47.2820 -47.2747 -47.2710 -47.2681 -47.2647 -27.5405 -27.5403
   -18.4101 -18.3981 -18.3672 -18.3420 -18.3295 -18.3097 -18.2365 -18.2273
   -18.2077 -18.2044 -18.1504 -18.1421 -18.1042 -18.0974 -18.0831 -18.0597
   -18.0487 -18.0418  -5.7839  -5.7824  -5.7571  -5.7546  -5.7471  -5.7424
    15.2302  15.3216  15.3929  15.4222  15.5055  15.5398  15.5716  15.7993
    16.0617  16.1941  16.2749  16.3971  16.4428  16.5059  16.6808  16.7403
    17.0308  17.1294  17.2811  17.3707  17.4524  17.4915  17.6351  17.6922
    17.7378  17.8826  18.2224  18.3282  18.5212  18.6005  19.0879  19.2383
    19.3705  19.8140  20.5975  20.7964  20.8172  20.9482  21.2655  21.2918
    21.7423  22.3496  22.3925  22.8131  23.2718  24.1388  25.2351  25.8816
    27.9994  28.6088

          k = 0.4000-0.1540 0.0000 (  5078 PWs)   bands (ev):

   -47.3052 -47.2859 -47.2778 -47.2667 -47.2559 -47.2549 -27.5399 -27.5389
   -18.4417 -18.3691 -18.3336 -18.3231 -18.3178 -18.3056 -18.2902 -18.2454
   -18.2251 -18.2133 -18.1379 -18.1288 -18.1177 -18.1102 -18.0960 -18.0559
   -18.0277 -18.0241  -5.7773  -5.7692  -5.7677  -5.7596  -5.7547  -5.7381
    14.7638  15.0122  15.1847  15.2017  15.3294  15.3807  15.4321  15.4944
    15.7972  15.8655  15.9156  16.5025  16.6315  16.6722  17.0419  17.0606
    17.1559  17.2485  17.2485  17.4740  17.6056  17.6610  17.6691  17.7204
    17.9131  18.0955  18.1486  18.2583  18.3026  18.4212  19.0049  19.6281
    19.6968  19.9576  20.6039  20.7734  20.8956  21.1765  21.6904  22.0744
    22.1332  22.1528  22.3074  24.2483  25.1224  26.0679  26.4825  27.0381
    27.6365  27.8282

          k = 0.4000-0.1540 0.1808 (  5082 PWs)   bands (ev):

   -47.3044 -47.2848 -47.2766 -47.2681 -47.2574 -47.2562 -27.5400 -27.5391
   -18.4296 -18.3853 -18.3521 -18.3486 -18.3154 -18.2803 -18.2689 -18.2523
   -18.2318 -18.2010 -18.1431 -18.1374 -18.1177 -18.0957 -18.0839 -18.0554
   -18.0444 -18.0262  -5.7799  -5.7731  -5.7641  -5.7576  -5.7530  -5.7380
    14.8726  15.0294  15.1528  15.2220  15.2519  15.3010  15.4657  15.5591
    15.9616  16.0219  16.1718  16.3576  16.5479  16.5857  16.7809  16.9045
    17.0393  17.1749  17.2651  17.4408  17.5283  17.6210  17.7068  17.8514
    17.9339  18.2163  18.2602  18.3834  18.4706  18.7044  18.9923  19.5096
    19.5577  19.8366  20.5510  20.8584  20.9089  21.1966  21.6309  21.6840
    21.7895  22.3612  22.4546  24.2596  24.3923  25.8674  26.1664  27.0192
    27.1503  27.8265

          k = 0.4000-0.1540 0.3616 (  5080 PWs)   bands (ev):

   -47.2985 -47.2817 -47.2739 -47.2711 -47.2625 -47.2589 -27.5403 -27.5397
   -18.4103 -18.4022 -18.3758 -18.3599 -18.3273 -18.3024 -18.2545 -18.2512
   -18.2044 -18.1644 -18.1461 -18.1411 -18.1205 -18.0819 -18.0754 -18.0623
   -18.0528 -18.0313  -5.7823  -5.7780  -5.7581  -5.7533  -5.7510  -5.7386
    14.9471  15.0976  15.1317  15.1880  15.4023  15.5216  15.6865  15.7499
    15.8203  16.0037  16.1301  16.3490  16.3696  16.4678  16.7729  16.8005
    16.8730  16.9500  17.2487  17.4721  17.5202  17.6044  17.7283  17.9126
    18.0300  18.3303  18.4483  18.5688  18.7573  18.8084  19.0308  19.1053
    19.6131  20.0067  20.4164  20.7047  20.8599  21.1757  21.3765  21.4059
    21.5092  22.5878  22.7582  23.0325  24.3800  24.5753  25.5674  26.0667
    27.3569  28.3375

          k = 0.4000-0.1540 0.5424 (  5062 PWs)   bands (ev):

   -47.2888 -47.2804 -47.2720 -47.2686 -47.2675 -47.2633 -27.5404 -27.5402
   -18.4137 -18.4020 -18.3757 -18.3562 -18.3405 -18.3300 -18.2282 -18.2200
   -18.1879 -18.1851 -18.1421 -18.1329 -18.0964 -18.0914 -18.0811 -18.0617
   -18.0446 -18.0354  -5.7822  -5.7811  -5.7532  -5.7515  -5.7452  -5.7402
    15.0574  15.1667  15.2214  15.3542  15.3958  15.5120  15.5888  15.8288
    15.8927  16.0291  16.1064  16.2409  16.3079  16.4315  16.5680  16.6359
    17.0095  17.1267  17.4408  17.5135  17.5856  17.6611  17.7745  17.8683
    17.9591  18.0669  18.4443  18.4734  18.6446  18.6878  19.2892  19.3878
    19.5644  19.8328  20.6390  20.8177  20.9213  21.0433  21.2740  21.3248
    21.8095  22.1966  22.4299  22.9574  23.4194  24.2971  24.8386  25.3671
    27.9681  28.6137

          k = 0.4000 0.0385 0.0000 (  5079 PWs)   bands (ev):

   -47.3075 -47.2834 -47.2786 -47.2651 -47.2569 -47.2551 -27.5399 -27.5388
   -18.4431 -18.3700 -18.3303 -18.3203 -18.3185 -18.3104 -18.2990 -18.2596
   -18.2263 -18.2170 -18.1282 -18.1277 -18.1171 -18.1103 -18.0741 -18.0470
   -18.0344 -18.0311  -5.7774  -5.7695  -5.7652  -5.7609  -5.7510  -5.7394
    14.6962  15.0514  15.1145  15.1431  15.2161  15.4245  15.5140  15.5454
    15.6397  15.6975  15.9197  16.4743  16.6071  16.7370  16.9478  17.1342
    17.2416  17.3104  17.4082  17.4486  17.6016  17.6018  17.6121  17.7260
    17.9266  18.1640  18.1763  18.2167  18.3927  18.4370  19.2285  19.5426
    19.6991  19.9648  20.7242  20.7832  21.1774  21.4408  21.6345  21.9068
    22.1009  22.1139  22.1349  24.6032  24.9113  25.4599  26.4299  26.8798
    27.9182  28.0633

          k = 0.4000 0.0385 0.1808 (  5082 PWs)   bands (ev):

   -47.3040 -47.2834 -47.2790 -47.2668 -47.2573 -47.2568 -27.5400 -27.5391
   -18.4291 -18.3809 -18.3700 -18.3505 -18.3053 -18.2920 -18.2683 -18.2620
   -18.2347 -18.2037 -18.1427 -18.1321 -18.1031 -18.0968 -18.0726 -18.0470
   -18.0436 -18.0352  -5.7799  -5.7724  -5.7618  -5.7593  -5.7493  -5.7398
    14.8313  15.0643  15.0910  15.1407  15.2633  15.2887  15.3257  15.5155
    15.9768  16.0494  16.0867  16.4083  16.4896  16.6741  16.7564  16.8110
    17.0953  17.1361  17.3193  17.4739  17.5198  17.6509  17.7430  17.7791
    17.9502  18.2685  18.2930  18.4467  18.5481  18.7350  19.1933  19.5164
    19.6257  19.7028  20.6539  20.8672  21.1753  21.3618  21.6611  21.7636
    21.8874  22.0483  22.1797  24.1042  24.7481  25.5001  26.1030  26.6327
    27.3764  27.8113

          k = 0.4000 0.0385 0.3616 (  5063 PWs)   bands (ev):

   -47.2989 -47.2778 -47.2754 -47.2693 -47.2609 -47.2592 -27.5402 -27.5396
   -18.4019 -18.3965 -18.3885 -18.3646 -18.3214 -18.3123 -18.2569 -18.2472
   -18.1944 -18.1591 -18.1541 -18.1378 -18.0957 -18.0853 -18.0745 -18.0595
   -18.0455 -18.0347  -5.7809  -5.7775  -5.7559  -5.7533  -5.7463  -5.7401
    14.9466  15.0348  15.0698  15.1888  15.4181  15.4779  15.5224  15.7206
    15.9004  16.0238  16.0865  16.2902  16.3317  16.4669  16.7223  16.7656
    16.8798  16.9786  17.2633  17.4140  17.4856  17.6643  17.8910  17.9186
    17.9659  18.4716  18.5328  18.5830  18.8606  18.8847  19.0778  19.1763
    19.7186  19.8592  20.4485  20.7356  21.0424  21.1868  21.3745  21.6913
    21.8486  22.1189  22.3520  22.9429  24.6968  24.9512  25.1131  25.6162
    27.7703  28.1870

          k = 0.4000 0.0385 0.5424 (  5064 PWs)   bands (ev):

   -47.2904 -47.2811 -47.2726 -47.2681 -47.2659 -47.2634 -27.5403 -27.5401
   -18.4038 -18.3967 -18.3854 -18.3792 -18.3408 -18.3385 -18.2281 -18.2164
   -18.1841 -18.1750 -18.1397 -18.1194 -18.0982 -18.0929 -18.0862 -18.0618
   -18.0458 -18.0375  -5.7823  -5.7811  -5.7514  -5.7504  -5.7441  -5.7418
    15.0306  15.1116  15.1810  15.3349  15.3808  15.5120  15.6688  15.7869
    15.8321  15.9274  16.0503  16.2091  16.2784  16.3970  16.5220  16.6350
    17.0080  17.0484  17.3779  17.5368  17.6336  17.7664  17.8076  17.8651
    18.0305  18.0850  18.5181  18.5544  18.7690  18.9183  19.3008  19.3776
    19.6313  19.7886  20.6891  20.7614  21.0313  21.0882  21.3515  21.5548
    21.9936  22.2480  22.2787  22.6449  23.2757  23.5842  25.4056  25.6416
    27.8500  28.1025

     the Fermi energy is    20.8298 ev

!    total energy              =   -1429.23407294 Ry
     Harris-Foulkes estimate   =   -1429.23409022 Ry
     estimated scf accuracy    <       0.00002248 Ry

     The total energy is the sum of the following terms:

     one-electron contribution =    -210.66406099 Ry
     hartree contribution      =     195.01811893 Ry
     xc contribution           =    -145.43040273 Ry
     ewald contribution        =   -1267.66245397 Ry
     smearing contrib. (-TS)   =      -0.49527418 Ry

     convergence has been achieved in  13 iterations

     Forces acting on atoms (Ry/au):

     atom    1 type  1   force =    -0.00230460   -0.00133056    0.00000000
     atom    2 type  1   force =    -0.00230460    0.00133056    0.00000000
     atom    3 type  1   force =     0.00230460    0.00133056    0.00000000
     atom    4 type  1   force =     0.00230460   -0.00133056    0.00000000
     atom    5 type  1   force =     0.00000000    0.00266112    0.00000000
     atom    6 type  1   force =     0.00000000   -0.00266112    0.00000000
     atom    7 type  2   force =     0.00000000    0.00000000    0.00000000
     atom    8 type  2   force =     0.00000000    0.00000000    0.00000000

     Total force =     0.006518     Total SCF correction =     0.000000


     entering subroutine stress ...

          total   stress  (Ry/bohr**3)                   (kbar)     P= -285.74
  -0.00204974   0.00000000   0.00000000       -301.53      0.00      0.00
   0.00000000  -0.00204974   0.00000000          0.00   -301.53      0.00
   0.00000000   0.00000000  -0.00172779          0.00      0.00   -254.17


     BFGS Geometry Optimization

     number of scf cycles    =   1
     number of bfgs steps    =   0

     enthalpy new            =   -1429.2340729393 Ry

     new trust radius        =       0.3531480354 bohr
     new conv_thr            =       0.0001000000 Ry

     new unit-cell volume =   1022.60674 a.u.^3 (   151.53468 Ang^3 )

CELL_PARAMETERS (alat= 12.01680127)
   0.948756473   0.000000000   0.000000000
  -0.474378236   0.821647208   0.000000000
   0.000000000   0.000000000   0.755965328

ATOMIC_POSITIONS (crystal)
Mg       0.663602292   0.831801146   0.250000000
Mg       0.831801146   0.168198854   0.750000000
Mg       0.336397708   0.168198854   0.750000000
Mg       0.168198854   0.831801146   0.250000000
Mg       0.168198854   0.336397708   0.250000000
Mg       0.831801146   0.663602292   0.750000000
Cd       0.666667000   0.333333000   0.250000000
Cd       0.333333000   0.666667000   0.750000000



     Writing output data file Prototype-La-hP8-Mg3Cd.save
     NEW-OLD atomic charge density approx. for the potential
     NEW k-points:
        k(    1) = (   0.0000000   0.0000000   0.0000000), wk =   0.0095238
        k(    2) = (   0.0000000   0.0000000   0.1889731), wk =   0.0190476
        k(    3) = (   0.0000000   0.0000000   0.3779463), wk =   0.0190476
        k(    4) = (   0.0000000   0.0000000   0.5669194), wk =   0.0190476
        k(    5) = (   0.0000000   0.2028446   0.0000000), wk =   0.0190476
        k(    6) = (   0.0000000   0.2028446   0.1889731), wk =   0.0380952
        k(    7) = (   0.0000000   0.2028446   0.3779463), wk =   0.0380952
        k(    8) = (   0.0000000   0.2028446   0.5669194), wk =   0.0380952
        k(    9) = (   0.0000000   0.4056891   0.0000000), wk =   0.0190476
        k(   10) = (   0.0000000   0.4056891   0.1889731), wk =   0.0380952
        k(   11) = (   0.0000000   0.4056891   0.3779463), wk =   0.0380952
        k(   12) = (   0.0000000   0.4056891   0.5669194), wk =   0.0380952
        k(   13) = (   0.0000000  -0.6085337   0.0000000), wk =   0.0095238
        k(   14) = (   0.0000000  -0.6085337   0.1889731), wk =   0.0190476
        k(   15) = (   0.0000000  -0.6085337   0.3779463), wk =   0.0190476
        k(   16) = (   0.0000000  -0.6085337   0.5669194), wk =   0.0190476
        k(   17) = (   0.2108023   0.1217067   0.0000000), wk =   0.0190476
        k(   18) = (   0.2108023   0.1217067   0.1889731), wk =   0.0380952
        k(   19) = (   0.2108023   0.1217067   0.3779463), wk =   0.0380952
        k(   20) = (   0.2108023   0.1217067   0.5669194), wk =   0.0380952
        k(   21) = (   0.2108023   0.3245513   0.0000000), wk =   0.0190476
        k(   22) = (   0.2108023   0.3245513   0.1889731), wk =   0.0380952
        k(   23) = (   0.2108023   0.3245513   0.3779463), wk =   0.0380952
        k(   24) = (   0.2108023   0.3245513   0.5669194), wk =   0.0380952
        k(   25) = (   0.2108023   0.5273959   0.0000000), wk =   0.0190476
        k(   26) = (   0.2108023   0.5273959   0.1889731), wk =   0.0380952
        k(   27) = (   0.2108023   0.5273959   0.3779463), wk =   0.0380952
        k(   28) = (   0.2108023   0.5273959   0.5669194), wk =   0.0380952
        k(   29) = (   0.2108023  -0.4868269   0.0000000), wk =   0.0190476
        k(   30) = (   0.2108023  -0.4868269   0.1889731), wk =   0.0380952
        k(   31) = (   0.2108023  -0.4868269   0.3779463), wk =   0.0380952
        k(   32) = (   0.2108023  -0.4868269   0.5669194), wk =   0.0380952
        k(   33) = (   0.2108023  -0.2839824   0.0000000), wk =   0.0190476
        k(   34) = (   0.2108023  -0.2839824   0.1889731), wk =   0.0380952
        k(   35) = (   0.2108023  -0.2839824   0.3779463), wk =   0.0380952
        k(   36) = (   0.2108023  -0.2839824   0.5669194), wk =   0.0380952
        k(   37) = (   0.2108023  -0.0811378   0.0000000), wk =   0.0190476
        k(   38) = (   0.2108023  -0.0811378   0.1889731), wk =   0.0380952
        k(   39) = (   0.2108023  -0.0811378   0.3779463), wk =   0.0380952
        k(   40) = (   0.2108023  -0.0811378   0.5669194), wk =   0.0380952
        k(   41) = (   0.4216045   0.2434135   0.0000000), wk =   0.0190476
        k(   42) = (   0.4216045   0.2434135   0.1889731), wk =   0.0380952
        k(   43) = (   0.4216045   0.2434135   0.3779463), wk =   0.0380952
        k(   44) = (   0.4216045   0.2434135   0.5669194), wk =   0.0380952
        k(   45) = (   0.4216045   0.4462580   0.0000000), wk =   0.0190476
        k(   46) = (   0.4216045   0.4462580   0.1889731), wk =   0.0380952
        k(   47) = (   0.4216045   0.4462580   0.3779463), wk =   0.0380952
        k(   48) = (   0.4216045   0.4462580   0.5669194), wk =   0.0380952
        k(   49) = (   0.4216045   0.6491026   0.0000000), wk =   0.0190476
        k(   50) = (   0.4216045   0.6491026   0.1889731), wk =   0.0380952
        k(   51) = (   0.4216045   0.6491026   0.3779463), wk =   0.0380952
        k(   52) = (   0.4216045   0.6491026   0.5669194), wk =   0.0380952
        k(   53) = (   0.4216045  -0.3651202   0.0000000), wk =   0.0190476
[...]
    18.9135  19.0584  19.0923  19.3936  19.5037  19.5213  19.6341  19.7555
    20.0311  20.0964  20.1333  20.3958  20.7239  20.7482  20.8270  20.9576
    21.1292  21.2978  21.4724  21.6208  21.7690  21.8202  22.1166  22.9839
    23.1210  23.5918  24.0369  24.1973  24.6046  24.7103  25.7491  25.8419
    25.8517  25.9320  26.0760  29.1746  29.9609  30.5335  30.7605  30.9498
    31.5571  32.2203

          k = 0.4209 0.4455 0.1860 (  4451 PWs)   bands (ev):

   -43.9817 -43.9614 -43.9432 -43.9150 -43.9037 -43.8982 -23.7421 -23.7414
   -15.2079 -15.1740 -15.1141 -15.1014 -15.0918 -15.0174 -14.9957 -14.9523
   -14.9406 -14.9079 -14.8955 -14.8789 -14.7872 -14.7567 -14.7311 -14.6998
   -14.6727 -14.6535  -2.1041  -2.0868  -2.0828  -2.0704  -2.0653  -2.0475
    17.8678  17.9482  18.1831  18.2433  18.3358  18.3829  18.6091  18.8229
    18.9250  19.0230  19.0704  19.2632  19.3410  19.4727  19.5401  19.8760
    20.0372  20.1325  20.2972  20.3971  20.5995  20.9010  20.9820  21.0280
    21.1305  21.2020  21.2591  21.7608  21.8685  21.9761  22.2498  22.8497
    23.0047  23.2906  24.0388  24.3423  24.6647  24.7815  25.3885  25.5672
    25.5981  26.1575  26.2395  29.3865  29.5565  29.8499  30.1403  31.0604
    31.4598  32.2717

          k = 0.4209 0.4455 0.3720 (  4437 PWs)   bands (ev):

   -43.9707 -43.9563 -43.9402 -43.9170 -43.9145 -43.9013 -23.7430 -23.7426
   -15.2011 -15.1756 -15.1342 -15.1170 -15.0935 -15.0378 -14.9890 -14.9522
   -14.9107 -14.9064 -14.8784 -14.8541 -14.7919 -14.7304 -14.7090 -14.6997
   -14.6912 -14.6768  -2.1028  -2.0946  -2.0779  -2.0622  -2.0605  -2.0466
    17.9769  18.0496  18.1627  18.2610  18.4448  18.4750  18.5415  18.5907
    18.9233  19.0024  19.0505  19.0849  19.4585  19.5506  19.8301  19.8934
    20.0043  20.0835  20.1469  20.3935  20.6163  20.7361  20.8518  20.9605
    21.0670  21.3584  21.5538  21.7317  21.9759  22.2944  22.3804  22.6310
    22.6739  23.5309  24.0672  24.2703  24.6321  24.8483  25.0685  25.2998
    25.3496  26.4382  26.4584  27.8500  28.3908  29.4631  29.8013  30.7529
    32.4093  32.5099

          k = 0.4209 0.4455 0.5580 (  4445 PWs)   bands (ev):

   -43.9579 -43.9521 -43.9388 -43.9301 -43.9155 -43.9094 -23.7437 -23.7435
   -15.2068 -15.1917 -15.1386 -15.1123 -15.0955 -15.0767 -14.9659 -14.9603
   -14.9200 -14.9193 -14.8310 -14.8228 -14.7694 -14.7664 -14.7229 -14.6978
   -14.6884 -14.6787  -2.1029  -2.1008  -2.0691  -2.0631  -2.0540  -2.0490
    18.0598  18.1084  18.2384  18.2732  18.3188  18.3297  18.4437  18.5547
    19.0937  19.1018  19.2471  19.2875  19.4875  19.5825  19.7366  19.7981
    20.0317  20.1600  20.1971  20.4485  20.5045  20.6450  20.7706  20.8105
    20.8817  21.2294  21.6381  21.7627  21.8405  22.0766  22.4570  22.5581
    23.0696  23.4978  24.3830  24.6294  24.6597  24.8322  25.2153  25.2469
    25.6219  26.3481  26.4009  26.8768  27.0010  27.8789  30.4094  31.0759
    32.3904  32.9722

          k = 0.4209 0.6480 0.0000 (  4446 PWs)   bands (ev):

   -43.9817 -43.9577 -43.9510 -43.9094 -43.9024 -43.8977 -23.7417 -23.7412
   -15.2227 -15.1279 -15.0828 -15.0678 -15.0657 -15.0464 -15.0313 -15.0153
   -14.9483 -14.9300 -14.8498 -14.8405 -14.7805 -14.7681 -14.7556 -14.7063
   -14.6959 -14.6289  -2.1049  -2.0831  -2.0779  -2.0743  -2.0714  -2.0546
    17.6904  18.2047  18.3676  18.3949  18.4554  18.5870  18.7105  18.7174
    19.0070  19.0129  19.1102  19.1995  19.3253  19.3816  19.5335  19.7184
    19.9079  19.9392  20.2886  20.3339  20.5489  20.6488  20.7291  20.8671
    21.2643  21.4483  21.4513  21.6326  21.7301  21.8293  22.3287  22.7727
    23.0591  23.5687  24.1791  24.4484  24.7058  24.8831  25.3340  25.5841
    25.7071  25.8025  25.9106  29.4794  29.6193  30.4224  30.5720  31.1266
    31.9609  32.3318

          k = 0.4209 0.6480 0.1860 (  4445 PWs)   bands (ev):

   -43.9789 -43.9576 -43.9499 -43.9095 -43.9038 -43.9014 -23.7421 -23.7417
   -15.2076 -15.1400 -15.1202 -15.1019 -15.0735 -15.0427 -14.9822 -14.9666
   -14.9415 -14.9297 -14.8843 -14.8712 -14.7648 -14.7484 -14.7315 -14.7064
   -14.6993 -14.6524  -2.1009  -2.0891  -2.0836  -2.0686  -2.0654  -2.0550
    17.8424  18.2145  18.2980  18.4208  18.5071  18.5084  18.6193  18.8673
    18.9273  19.0083  19.0125  19.0689  19.1578  19.3769  19.6028  19.7913
    20.0883  20.1417  20.2254  20.3140  20.4737  20.8322  20.8505  20.9860
    21.1342  21.2188  21.3573  21.7157  21.8534  21.9156  22.5121  22.8649
    22.9505  23.0281  24.2189  24.4279  24.8503  24.9474  25.3103  25.4778
    25.4967  25.7847  25.8053  29.6702  29.7814  29.8100  30.1084  30.5914
    31.2062  32.2905

          k = 0.4209 0.6480 0.3720 (  4450 PWs)   bands (ev):

   -43.9693 -43.9536 -43.9483 -43.9154 -43.9119 -43.9066 -23.7430 -23.7428
   -15.1746 -15.1631 -15.1508 -15.1164 -15.0912 -15.0719 -14.9685 -14.9449
   -14.9296 -14.9096 -14.8815 -14.8558 -14.7828 -14.7296 -14.7116 -14.7082
   -14.6986 -14.6900  -2.0979  -2.0947  -2.0856  -2.0629  -2.0596  -2.0552
    18.1319  18.1948  18.2875  18.3550  18.4496  18.5777  18.6363  18.6989
    18.7737  18.8498  18.9290  19.1512  19.4062  19.6815  19.7063  19.8094
    20.0824  20.1720  20.2027  20.3276  20.5536  20.6200  20.6862  20.8735
    20.9894  21.3311  21.3777  21.8744  21.9916  22.2086  22.4559  22.5270
    22.8850  23.2457  24.1700  24.2539  24.9109  24.9330  25.1306  25.3504
    25.3847  25.8440  25.9434  28.1153  28.5947  28.9299  30.2068  30.4675
    32.4115  32.8945

          k = 0.4209 0.6480 0.5580 (  4444 PWs)   bands (ev):

   -43.9546 -43.9484 -43.9444 -43.9312 -43.9138 -43.9112 -23.7438 -23.7437
   -15.1802 -15.1625 -15.1499 -15.1333 -15.1006 -15.0864 -14.9596 -14.9529
   -14.9274 -14.9187 -14.8252 -14.8130 -14.7888 -14.7709 -14.7178 -14.7022
   -14.6897 -14.6836  -2.1003  -2.1000  -2.0734  -2.0651  -2.0545  -2.0525
    18.1389  18.2339  18.2988  18.3475  18.3841  18.4235  18.4713  18.5394
    19.1293  19.1711  19.2599  19.3636  19.5980  19.6147  19.8049  19.8666
    19.9406  19.9722  20.1136  20.2531  20.3990  20.5142  20.5576  20.6054
    20.9509  21.3217  21.5808  21.6543  22.0609  22.1803  22.3337  22.3790
    23.1976  23.3736  24.4744  24.5811  24.9097  24.9682  25.2850  25.3297
    25.7203  25.9401  26.0212  26.7661  27.0310  27.3073  31.0864  31.4617
    32.4746  32.9186

          k = 0.4209-0.3645 0.0000 (  4457 PWs)   bands (ev):

   -43.9901 -43.9637 -43.9390 -43.9189 -43.9005 -43.8929 -23.7417 -23.7406
   -15.2311 -15.1685 -15.1149 -15.0908 -15.0490 -15.0450 -15.0168 -14.9814
   -14.9392 -14.9004 -14.8767 -14.8507 -14.7895 -14.7881 -14.7564 -14.6986
   -14.6570 -14.6400  -2.1058  -2.0821  -2.0778  -2.0776  -2.0690  -2.0420
    17.7678  17.8210  18.0197  18.1481  18.2189  18.2942  18.4871  18.6976
    18.8038  18.9846  19.0213  19.4950  19.5999  19.6537  19.7628  19.9941
    20.0898  20.1271  20.2124  20.4409  20.7849  20.8707  20.8916  21.0170
    21.0652  21.2581  21.4604  21.5508  21.6738  21.8232  22.1543  22.9290
    23.2988  23.6151  23.9718  24.2163  24.4800  24.6955  25.7532  25.8959
    25.9862  26.2511  26.3336  28.8969  30.2943  30.3046  30.6572  31.3702
    31.6280  32.1198

          k = 0.4209-0.3645 0.1860 (  4454 PWs)   bands (ev):

   -43.9841 -43.9612 -43.9387 -43.9196 -43.9043 -43.8963 -23.7421 -23.7412
   -15.2127 -15.1909 -15.1282 -15.1021 -15.0868 -15.0208 -14.9934 -14.9621
   -14.9298 -14.9165 -14.8808 -14.8647 -14.8000 -14.7594 -14.7315 -14.6918
   -14.6584 -14.6559  -2.1046  -2.0869  -2.0786  -2.0722  -2.0646  -2.0418
    17.7905  17.8939  18.0675  18.1160  18.1767  18.2916  18.5427  18.7064
    18.9137  18.9928  19.1515  19.2594  19.4436  19.5410  19.6330  19.9593
    20.0977  20.2310  20.2694  20.4561  20.6764  20.8813  21.0047  21.0456
    21.1080  21.2724  21.4213  21.7304  21.8266  22.0025  22.2046  22.8570
    23.0163  23.4729  23.9767  24.3141  24.5860  24.7445  25.4211  25.6071
    25.6727  26.4732  26.5399  29.1127  29.2024  29.8937  30.4632  31.4203
    31.8052  32.0323

          k = 0.4209-0.3645 0.3720 (  4440 PWs)   bands (ev):

   -43.9734 -43.9555 -43.9357 -43.9211 -43.9141 -43.9011 -23.7429 -23.7423
   -15.2183 -15.1907 -15.1327 -15.1266 -15.0900 -15.0352 -14.9932 -14.9629
   -14.9153 -14.8870 -14.8645 -14.8493 -14.7978 -14.7315 -14.7099 -14.7005
   -14.6853 -14.6634  -2.1038  -2.0944  -2.0727  -2.0630  -2.0599  -2.0421
    17.8198  17.9720  18.0909  18.1239  18.3047  18.4977  18.5361  18.5585
    18.8344  19.0912  19.1103  19.1910  19.2784  19.5289  19.7920  19.9068
    20.0013  20.0655  20.3625  20.4157  20.6239  20.7729  20.9683  21.0016
    21.2003  21.3941  21.6180  21.7857  22.0632  22.2672  22.3581  22.5135
    22.8042  23.7086  24.0154  24.2763  24.4987  24.8223  25.0589  25.3033
    25.3922  26.7331  26.8937  27.5894  28.3735  29.4375  29.8623  30.8437
    31.9802  32.6518

          k = 0.4209-0.3645 0.5580 (  4448 PWs)   bands (ev):

   -43.9607 -43.9537 -43.9363 -43.9287 -43.9168 -43.9087 -23.7436 -23.7433
   -15.2236 -15.2077 -15.1352 -15.1119 -15.0952 -15.0835 -14.9666 -14.9595
   -14.9213 -14.9075 -14.8377 -14.8204 -14.7652 -14.7544 -14.7288 -14.6956
   -14.6835 -14.6741  -2.1041  -2.1009  -2.0658  -2.0613  -2.0531  -2.0456
    17.9416  18.0381  18.1488  18.1745  18.2903  18.3105  18.3437  18.6192
    18.9858  19.1081  19.1575  19.3239  19.3625  19.4566  19.6449  19.7174
    20.1254  20.2399  20.4420  20.5743  20.6446  20.7133  20.9109  20.9639
    20.9851  21.1817  21.5837  21.7211  21.9359  22.0181  22.5567  22.7362
    22.9801  23.5514  24.3252  24.5597  24.6523  24.7772  25.1943  25.2584
    25.6181  26.3285  26.5299  26.8599  27.5092  28.4178  29.8201  30.4158
    32.5479  33.1355

          k = 0.4209-0.1620 0.0000 (  4467 PWs)   bands (ev):

   -43.9959 -43.9580 -43.9389 -43.9229 -43.8990 -43.8938 -23.7415 -23.7399
   -15.2396 -15.1994 -15.1204 -15.0819 -15.0697 -15.0584 -15.0470 -14.9895
   -14.9588 -14.9320 -14.8291 -14.7984 -14.7874 -14.7659 -14.7566 -14.6891
   -14.6493 -14.6445  -2.0982  -2.0803  -2.0779  -2.0721  -2.0663  -2.0377
    17.5656  17.8104  17.8602  17.9461  18.0740  18.0983  18.2358  18.3556
    18.6750  18.7236  18.8745  19.4789  19.6579  19.6983  20.1771  20.1843
    20.3763  20.3900  20.4636  20.5663  20.7852  20.8341  20.9224  20.9686
    21.2008  21.3806  21.4842  21.5165  21.6249  21.7168  22.4777  22.9980
    23.4169  23.6614  24.2511  24.5021  24.6961  24.9856  25.6422  25.9872
    26.1233  26.3257  26.5102  28.7514  29.3656  30.4877  30.7390  31.4864
    32.0909  32.2687

          k = 0.4209-0.1620 0.1860 (  4458 PWs)   bands (ev):

   -43.9905 -43.9558 -43.9356 -43.9242 -43.9037 -43.8958 -23.7419 -23.7405
   -15.2224 -15.2054 -15.1446 -15.1148 -15.0983 -15.0161 -15.0121 -14.9883
   -14.9748 -14.9072 -14.8306 -14.8191 -14.7862 -14.7495 -14.7260 -14.6880
   -14.6584 -14.6534  -2.0982  -2.0826  -2.0758  -2.0703  -2.0612  -2.0377
    17.6121  17.8291  17.9064  17.9373  17.9734  18.0973  18.2336  18.3531
    18.9046  18.9460  19.0681  19.2919  19.5413  19.6123  19.8062  19.9747
    20.1496  20.2401  20.4798  20.5932  20.7342  20.8510  20.9874  21.0812
    21.2152  21.5432  21.6153  21.7653  21.8266  22.0837  22.4703  22.9707
    23.1266  23.5893  24.2012  24.5605  24.7448  25.0250  25.5179  25.5871
    25.7751  26.5170  26.6760  28.4883  28.9270  30.1564  30.6070  31.4892
    31.6030  32.1265

          k = 0.4209-0.1620 0.3720 (  4453 PWs)   bands (ev):

   -43.9802 -43.9511 -43.9350 -43.9256 -43.9112 -43.9018 -23.7426 -23.7417
   -15.2273 -15.2049 -15.1539 -15.1443 -15.1104 -15.0589 -15.0081 -14.9758
   -14.9077 -14.8557 -14.8363 -14.8241 -14.7951 -14.7268 -14.7128 -14.7003
   -14.6828 -14.6578  -2.0997  -2.0902  -2.0696  -2.0618  -2.0567  -2.0377
    17.6138  17.7854  17.8311  18.0284  18.1410  18.3633  18.4787  18.5599
    18.6694  18.8694  19.0320  19.2576  19.3340  19.4209  19.7555  19.8274
    19.9004  19.9556  20.3761  20.7233  20.7776  20.8724  21.0253  21.1521
    21.3624  21.7095  21.8176  21.9967  22.2151  22.2918  22.5392  22.5739
    23.1741  23.8143  24.0899  24.4103  24.6508  24.9965  25.2019  25.3251
    25.4806  26.7748  26.9927  27.1555  28.6082  29.1042  29.9474  30.5262
    31.8201  32.6127

          k = 0.4209-0.1620 0.5580 (  4452 PWs)   bands (ev):

   -43.9658 -43.9550 -43.9343 -43.9243 -43.9177 -43.9087 -23.7431 -23.7428
   -15.2323 -15.2149 -15.1527 -15.1423 -15.1233 -15.1091 -14.9716 -14.9349
   -14.8991 -14.8851 -14.8257 -14.8093 -14.7538 -14.7464 -14.7318 -14.7019
   -14.6790 -14.6674  -2.1004  -2.0970  -2.0618  -2.0580  -2.0499  -2.0412
    17.7301  17.8617  17.9305  18.0602  18.1435  18.2727  18.4337  18.6444
    18.8071  18.8516  18.9455  19.0955  19.2308  19.3291  19.5351  19.5908
    20.0946  20.2450  20.6561  20.7169  20.8114  20.9415  21.0403  21.1598
    21.2706  21.4137  21.8413  21.8963  22.0938  22.1359  22.8349  22.9870
    23.1373  23.5757  24.3729  24.6526  24.7445  24.9251  25.1918  25.3026
    25.7053  26.1414  26.5650  27.0110  27.6731  28.5995  29.3621  29.8463
    32.5470  33.1817

          k = 0.4209 0.0405 0.0000 (  4466 PWs)   bands (ev):

   -43.9974 -43.9524 -43.9436 -43.9212 -43.8978 -43.8956 -23.7415 -23.7397
   -15.2415 -15.2041 -15.0978 -15.0859 -15.0794 -15.0733 -15.0534 -15.0162
   -14.9528 -14.9407 -14.8175 -14.7885 -14.7837 -14.7595 -14.7271 -14.6833
   -14.6667 -14.6438  -2.0902  -2.0843  -2.0808  -2.0655  -2.0633  -2.0403
    17.5976  17.7360  17.7725  17.8487  17.9754  18.1911  18.2916  18.3775
    18.4756  18.5525  18.8826  19.4123  19.6444  19.7777  20.0584  20.2776
    20.4533  20.5457  20.5932  20.5961  20.7358  20.7785  20.8334  20.9711
    21.1668  21.4351  21.5115  21.5543  21.6643  21.7548  22.7794  23.1008
    23.2302  23.6699  24.4181  24.4854  25.1340  25.4333  25.5592  25.9502
    26.0519  26.1171  26.1879  29.0737  29.1372  29.9991  30.6447  31.0964
    32.3734  32.5135

          k = 0.4209 0.0405 0.1860 (  4461 PWs)   bands (ev):

   -43.9913 -43.9508 -43.9433 -43.9222 -43.9009 -43.8982 -23.7418 -23.7403
   -15.2254 -15.2077 -15.1513 -15.1233 -15.0917 -15.0525 -15.0084 -14.9921
   -14.9767 -14.9065 -14.8290 -14.8056 -14.7594 -14.7480 -14.7198 -14.6817
   -14.6638 -14.6599  -2.0914  -2.0850  -2.0745  -2.0709  -2.0566  -2.0402
    17.6658  17.7556  17.8103  17.8781  17.9849  18.0516  18.0979  18.3004
    18.9099  18.9246  18.9994  19.3685  19.4830  19.6843  19.7697  19.8567
    20.1803  20.2225  20.5262  20.6295  20.7618  20.8685  20.9910  21.0339
    21.2368  21.6094  21.6483  21.8389  21.8837  22.1410  22.7260  23.0747
    23.1449  23.4154  24.3466  24.5795  25.1294  25.2935  25.5613  25.7264
    25.8491  26.1015  26.2733  28.3170  29.2215  30.0203  30.4012  31.0029
    31.7586  32.1720

          k = 0.4209 0.0405 0.3720 (  4451 PWs)   bands (ev):

   -43.9808 -43.9457 -43.9417 -43.9240 -43.9088 -43.9031 -23.7425 -23.7415
   -15.2163 -15.2049 -15.1815 -15.1528 -15.1015 -15.0826 -15.0125 -14.9719
   -14.8991 -14.8508 -14.8373 -14.8208 -14.7581 -14.7352 -14.7104 -14.7015
   -14.6755 -14.6660  -2.0949  -2.0878  -2.0688  -2.0636  -2.0511  -2.0411
    17.6103  17.7185  17.7505  18.0592  18.1519  18.2522  18.3323  18.5199
    18.7710  18.8983  18.9534  19.2394  19.2480  19.4101  19.6809  19.7795
    19.8528  20.0094  20.4335  20.6096  20.7340  20.9596  21.1610  21.2049
    21.2863  21.8672  21.9429  22.0357  22.3217  22.3986  22.5248  22.7324
    23.3020  23.6240  24.1555  24.4524  24.9075  24.9904  25.2800  25.6689
    25.8831  26.1789  26.4868  27.0471  28.9432  29.2732  29.5719  30.1576
    32.1651  32.4946

          k = 0.4209 0.0405 0.5580 (  4449 PWs)   bands (ev):

   -43.9683 -43.9539 -43.9331 -43.9240 -43.9153 -43.9099 -23.7430 -23.7427
   -15.2157 -15.2080 -15.1855 -15.1748 -15.1217 -15.1106 -14.9709 -14.9339
   -14.8809 -14.8804 -14.8231 -14.7885 -14.7515 -14.7418 -14.7377 -14.7033
   -14.6754 -14.6698  -2.0966  -2.0946  -2.0603  -2.0573  -2.0472  -2.0439
    17.6994  17.8000  17.8816  18.0477  18.1152  18.2714  18.5297  18.6322
    18.6765  18.7293  18.8776  19.0861  19.1859  19.3135  19.4570  19.5802
    20.0832  20.1191  20.5813  20.7995  20.8584  21.0294  21.0609  21.1838
    21.3297  21.4429  21.9547  22.0000  22.2746  22.4010  22.8366  22.9911
    23.2038  23.5175  24.4553  24.6043  24.8998  24.9521  25.2944  25.5670
    25.9615  26.2314  26.3702  26.7469  27.3744  27.7448  29.9095  30.1648
    32.5051  32.7319

     the Fermi energy is    24.6479 ev

!    total energy              =   -1429.11736957 Ry
     Harris-Foulkes estimate   =   -1429.11737385 Ry
     estimated scf accuracy    <       0.00000471 Ry

     The total energy is the sum of the following terms:

     one-electron contribution =    -129.72649323 Ry
     hartree contribution      =     171.68358091 Ry
     xc contribution           =    -146.71599943 Ry
     ewald contribution        =   -1323.93269453 Ry
     smearing contrib. (-TS)   =      -0.42576330 Ry

     convergence has been achieved in  13 iterations

     Forces acting on atoms (Ry/au):

     atom    1 type  1   force =     0.00454459    0.00262382    0.00000000
     atom    2 type  1   force =     0.00454459   -0.00262382    0.00000000
     atom    3 type  1   force =    -0.00454459   -0.00262382    0.00000000
     atom    4 type  1   force =    -0.00454459    0.00262382    0.00000000
     atom    5 type  1   force =     0.00000000   -0.00524764    0.00000000
     atom    6 type  1   force =     0.00000000    0.00524764    0.00000000
     atom    7 type  2   force =     0.00000000    0.00000000    0.00000000
     atom    8 type  2   force =     0.00000000    0.00000000    0.00000000

     Total force =     0.012854     Total SCF correction =     0.000000


     entering subroutine stress ...

          total   stress  (Ry/bohr**3)                   (kbar)     P=  -26.37
  -0.00026793   0.00000000   0.00000000        -39.41      0.00      0.00
   0.00000000  -0.00026793   0.00000000          0.00    -39.41      0.00
   0.00000000   0.00000000  -0.00000183          0.00      0.00     -0.27


     Writing output data file Prototype-La-hP8-Mg3Cd.save
 
     init_run     :     11.64s CPU     14.30s WALL (       2 calls)
     electrons    :   2513.08s CPU   3002.60s WALL (       5 calls)
     update_pot   :      2.59s CPU      2.60s WALL (       3 calls)
     forces       :     10.84s CPU     11.48s WALL (       5 calls)
     stress       :     31.08s CPU     32.07s WALL (       5 calls)

     Called by init_run:
     wfcinit      :     10.74s CPU     13.38s WALL (       2 calls)
     potinit      :      0.40s CPU      0.41s WALL (       2 calls)

     Called by electrons:
     c_bands      :   2422.23s CPU   2863.01s WALL (      51 calls)
     sum_band     :     90.36s CPU    120.30s WALL (      51 calls)
     v_of_rho     :      0.10s CPU      0.12s WALL (      56 calls)
     mix_rho      :      0.11s CPU      0.13s WALL (      51 calls)

     Called by c_bands:
     init_us_2    :      6.91s CPU      8.05s WALL (    7296 calls)
     ccgdiagg     :   2144.13s CPU   2508.98s WALL (    3697 calls)
     wfcrot       :    282.11s CPU    357.07s WALL (    3761 calls)

     Called by *cgdiagg:
     h_psi        :   1688.84s CPU   2066.96s WALL ( 1430462 calls)
     cdiaghg      :     10.16s CPU     10.72s WALL (    3761 calls)

     Called by h_psi:
     add_vuspsi   :    213.52s CPU    253.07s WALL ( 1430462 calls)

     General routines
     calbec       :    515.84s CPU    544.58s WALL ( 2857803 calls)
     fft          :      0.18s CPU      0.21s WALL (     247 calls)
     fftw         :   1196.59s CPU   1447.49s WALL ( 3737854 calls)
     davcio       :      4.04s CPU      8.38s WALL (   10560 calls)
 
     Parallel routines
     fft_scatter  :    434.00s CPU    542.55s WALL ( 3738101 calls)
 
     PWSCF        : 42m49.99s CPU    51m 7.55s WALL

 
   This run was terminated on:  23:40: 1  22Mar2018            

=------------------------------------------------------------------------------=
   JOB DONE.
=------------------------------------------------------------------------------=
