
     Program PWSCF v.5.0.2 starts on 23Mar2018 at  1: 1:24 

     This program is part of the open-source Quantum ESPRESSO suite
     for quantum simulation of materials; please cite
         "P. Giannozzi et al., J. Phys.:Condens. Matter 21 395502 (2009);
          URL http://www.quantum-espresso.org", 
     in publications or presentations arising from this work. More details at
     http://www.quantum-espresso.org/quote.php

     Parallel version (MPI), running on     4 processors
     R & G space division:  proc/nbgrp/npool/nimage =       4

     Current dimensions of program PWSCF are:
     Max number of different atomic species (ntypx) = 10
     Max number of k-points (npk) =  40000
     Max angular momentum in pseudopotentials (lmaxx) =  3
     Waiting for input...
     Reading input from standard input

     Subspace diagonalization in iterative solution of the eigenvalue problem:
     a serial algorithm will be used

 
     Parallelization info
     --------------------
     sticks:   dense  smooth     PW     G-vecs:    dense   smooth      PW
     Min         207     207     61                 7381     7381    1191
     Max         208     208     62                 7386     7386    1192
     Sum         829     829    247                29529    29529    4767
 


     bravais-lattice index     =            0
     lattice parameter (alat)  =       7.0151  a.u.
     unit-cell volume          =     862.2778 (a.u.)^3
     number of atoms/cell      =           12
     number of atomic types    =            2
     number of electrons       =       244.00
     number of Kohn-Sham states=          146
     kinetic-energy cutoff     =      40.0000  Ry
     charge density cutoff     =     160.0000  Ry
     convergence threshold     =      1.0E-04
     mixing beta               =       0.7000
     number of iterations used =            8  plain     mixing
     Exchange-correlation      = SLA-PZ-NOGX-NOGC ( 1 1 0 0 0)
     EXX-fraction              =        0.00
     nstep                     =           50


     celldm(1)=   7.015105  celldm(2)=   0.000000  celldm(3)=   0.000000
     celldm(4)=   0.000000  celldm(5)=   0.000000  celldm(6)=   0.000000

     crystal axes: (cart. coord. in units of alat)
               a(1) = (   1.000000   0.000000   0.000000 )  
               a(2) = (   0.000000   1.315963   0.000000 )  
               a(3) = (   0.000000   0.000000   1.898020 )  

     reciprocal axes: (cart. coord. in units 2 pi/alat)
               b(1) = (  1.000000  0.000000  0.000000 )  
               b(2) = (  0.000000  0.759900  0.000000 )  
               b(3) = (  0.000000  0.000000  0.526865 )  


     PseudoPot. # 1 for Ho read from file:
     /home/cwx6513/pp.La/Ho.UPF
     MD5 check sum: f307ee11bce99f5b724fa279e3790763
     Pseudo is Norm-conserving, Zval = 21.0
     Generated in analytical, separable form
     Using radial grid of 1265 points,  6 beta functions with: 
                l(1) =   0
                l(2) =   0
                l(3) =   1
                l(4) =   1
                l(5) =   2
                l(6) =   3

     PseudoPot. # 2 for Tb read from file:
     /home/cwx6513/pp.La/Tb.UPF
     MD5 check sum: 3d6088a3f0cf7fd2e110c43f7f8e95c2
     Pseudo is Norm-conserving, Zval = 19.0
     Generated in analytical, separable form
     Using radial grid of 1263 points,  6 beta functions with: 
                l(1) =   0
                l(2) =   0
                l(3) =   1
                l(4) =   1
                l(5) =   2
                l(6) =   3

     atomic species   valence    mass     pseudopotential
        Co            21.00    58.93320     Ho( 1.00)
        Si            19.00    28.08550     Tb( 1.00)

      8 Sym. Ops., with inversion, found ( 6 have fractional translation)



   Cartesian axes

     site n.     atom                  positions (alat units)
         1           Co  tau(   1) = (   0.7500000   1.0875135   0.8270358  )
         2           Co  tau(   2) = (   0.2500000   0.2284499   1.0709846  )
         3           Co  tau(   3) = (   0.7500000   0.4295318   0.1219744  )
         4           Co  tau(   4) = (   0.2500000   0.8864316   1.7760460  )
         5           Co  tau(   5) = (   0.2500000   0.7067855   0.5358966  )
         6           Co  tau(   6) = (   0.7500000   0.6091779   1.3621238  )
         7           Co  tau(   7) = (   0.2500000   0.0488038   0.4131136  )
         8           Co  tau(   8) = (   0.7500000   1.2671596   1.4849068  )
         9           Si  tau(   9) = (   0.2500000   0.2669484   1.6960710  )
        10           Si  tau(  10) = (   0.7500000   1.0490149   0.2019494  )
        11           Si  tau(  11) = (   0.2500000   0.9249301   1.1509596  )
        12           Si  tau(  12) = (   0.7500000   0.3910333   0.7470608  )

     number of k points=    12  gaussian smearing, width (Ry)=  0.1000
                       cart. coord. in units 2pi/alat
        k(    1) = (   0.0000000   0.0000000   0.0000000), wk =   0.0833333
        k(    2) = (   0.0000000   0.0000000   0.1317162), wk =   0.1666667
        k(    3) = (   0.0000000   0.0000000  -0.2634324), wk =   0.0833333
        k(    4) = (   0.0000000   0.2532999   0.0000000), wk =   0.1666667
        k(    5) = (   0.0000000   0.2532999   0.1317162), wk =   0.3333333
        k(    6) = (   0.0000000   0.2532999  -0.2634324), wk =   0.1666667
        k(    7) = (  -0.5000000   0.0000000   0.0000000), wk =   0.0833333
        k(    8) = (  -0.5000000   0.0000000   0.1317162), wk =   0.1666667
        k(    9) = (  -0.5000000   0.0000000  -0.2634324), wk =   0.0833333
        k(   10) = (  -0.5000000   0.2532999   0.0000000), wk =   0.1666667
        k(   11) = (  -0.5000000   0.2532999   0.1317162), wk =   0.3333333
        k(   12) = (  -0.5000000   0.2532999  -0.2634324), wk =   0.1666667

     Dense  grid:    29529 G-vectors     FFT dimensions: (  30,  40,  54)

     Largest allocated arrays     est. size (Mb)     dimensions
        Kohn-Sham Wavefunctions         2.05 Mb     (    922,  146)
        NL pseudopotentials             3.38 Mb     (    922,  240)
        Each V/rho on FFT grid          0.26 Mb     (  16800)
        Each G-vector array             0.06 Mb     (   7386)
        G-vector shells                 0.06 Mb     (   7386)
     Largest temporary arrays     est. size (Mb)     dimensions
        Each subspace H/S matrix        0.33 Mb     ( 146, 146)
        Each <psi_i|beta_j> matrix      0.53 Mb     (    240,  146)
        Arrays for rho mixing           2.05 Mb     (  16800,   8)

     Initial potential from superposition of free atoms

     Starting from uniform charge
     Starting wfc are    0 randomized atomic wfcs

     total cpu time spent up to now is        3.3 secs

     Self-consistent Calculation

     iteration #  1     ecut=    40.00 Ry     beta=0.70
     CG style diagonalization
     c_bands:  1 eigenvalues not converged
     c_bands:  2 eigenvalues not converged
     c_bands:  4 eigenvalues not converged
     c_bands:  2 eigenvalues not converged
     c_bands:  2 eigenvalues not converged
     c_bands:  1 eigenvalues not converged
     c_bands:  1 eigenvalues not converged
     c_bands:  2 eigenvalues not converged
     ethr =  1.00E-02,  avg # of iterations = 11.9

     total cpu time spent up to now is       45.0 secs

     total energy              =   -3035.66205054 Ry
     Harris-Foulkes estimate   =   -3622.80828559 Ry
     estimated scf accuracy    <     766.58993282 Ry

     iteration #  2     ecut=    40.00 Ry     beta=0.70
     CG style diagonalization
     c_bands:  1 eigenvalues not converged
     ethr =  1.00E-02,  avg # of iterations =  9.3

     total cpu time spent up to now is       79.5 secs

     total energy              =   -3227.68232558 Ry
     Harris-Foulkes estimate   =   -3273.80389243 Ry
     estimated scf accuracy    <      63.88354846 Ry

     iteration #  3     ecut=    40.00 Ry     beta=0.70
     CG style diagonalization
     ethr =  1.00E-02,  avg # of iterations =  4.4

     total cpu time spent up to now is       94.7 secs

     total energy              =   -3244.01986772 Ry
     Harris-Foulkes estimate   =   -3254.11627432 Ry
     estimated scf accuracy    <      20.72465038 Ry

     iteration #  4     ecut=    40.00 Ry     beta=0.70
     CG style diagonalization
     ethr =  8.49E-03,  avg # of iterations =  3.5

     total cpu time spent up to now is      105.5 secs

     total energy              =   -3248.29010163 Ry
     Harris-Foulkes estimate   =   -3248.79753237 Ry
     estimated scf accuracy    <       0.84159865 Ry

     iteration #  5     ecut=    40.00 Ry     beta=0.70
     CG style diagonalization
     ethr =  3.45E-04,  avg # of iterations =  4.2

     total cpu time spent up to now is      118.4 secs

     total energy              =   -3248.60061143 Ry
     Harris-Foulkes estimate   =   -3248.67712777 Ry
     estimated scf accuracy    <       0.13737428 Ry

     iteration #  6     ecut=    40.00 Ry     beta=0.70
     CG style diagonalization
     c_bands:  1 eigenvalues not converged
     c_bands:  1 eigenvalues not converged
     ethr =  5.63E-05,  avg # of iterations =  4.0

     total cpu time spent up to now is      131.8 secs

     total energy              =   -3248.63311754 Ry
     Harris-Foulkes estimate   =   -3248.64251841 Ry
     estimated scf accuracy    <       0.02079043 Ry

     iteration #  7     ecut=    40.00 Ry     beta=0.70
     CG style diagonalization
     c_bands:  2 eigenvalues not converged
     ethr =  8.52E-06,  avg # of iterations =  3.9

     total cpu time spent up to now is      142.5 secs

     total energy              =   -3248.63562488 Ry
     Harris-Foulkes estimate   =   -3248.63685761 Ry
     estimated scf accuracy    <       0.00228668 Ry

     iteration #  8     ecut=    40.00 Ry     beta=0.70
     CG style diagonalization
     ethr =  9.37E-07,  avg # of iterations =  3.9

     total cpu time spent up to now is      154.2 secs

     End of self-consistent calculation

          k = 0.0000 0.0000 0.0000 (  3675 PWs)   bands (ev):

   -41.4831 -41.3517 -41.3506 -41.3154 -41.2834 -41.1992 -41.1490 -41.1395
   -26.4089 -26.3999 -26.3886 -26.3754  -6.8395  -6.7890  -6.5923  -6.5385
    -6.4517  -6.3278  -6.2685  -6.2196  -6.1766  -6.1404  -5.9153  -5.9025
    -5.8363  -5.8220  -5.8141  -5.8025  -5.6803  -5.6239  -5.6008  -5.5448
    -5.4614  -5.3509  -5.1834  -5.1122   4.3351   4.4587   4.5016   4.5306
     4.5589   4.5754   4.6305   4.6848   4.8607   4.9049   4.9804   5.0605
    31.3693  31.7116  31.9449  32.0498  32.0563  32.1247  32.4764  32.7083
    32.7707  33.2901  33.4497  33.9014  33.9561  34.1435  34.3744  34.6221
    34.9892  35.0566  35.2071  35.6405  35.9987  36.1855  36.2905  36.3383
    36.3918  36.7039  36.9714  37.2752  37.3890  37.4623  37.4849  37.7393
    37.7467  38.1036  38.1269  38.2224  39.0449  39.0735  39.1941  40.1135
    40.2742  40.6454  40.8942  40.9166  41.7719  42.0240  42.0627  42.7377
    42.9136  43.0954  43.4422  43.9712  44.2502  44.4353  44.5449  44.6416
    45.5723  45.8831  46.0456  46.0560  46.0847  46.6542  46.8725  47.9573
    48.7956  51.0561  51.0681  51.5806  52.6316  53.6167  54.0062  56.1347
    56.1539  56.2928  56.7271  56.9266  57.5526  57.5881  57.6641  57.6992
    58.0759  58.1044  58.3791  58.4084  58.6653  59.0894  59.2596  59.2948
    59.9211  60.0744  60.1305  60.2993  60.5313  60.5329  60.7342  60.9001
    60.9573  61.1917

          k = 0.0000 0.0000 0.1317 (  3675 PWs)   bands (ev):

   -41.4713 -41.3922 -41.3244 -41.3239 -41.2701 -41.2192 -41.1471 -41.1276
   -26.4040 -26.3964 -26.3933 -26.3799  -6.8181  -6.7456  -6.6373  -6.5554
    -6.4848  -6.3854  -6.3575  -6.1526  -6.1365  -6.1330  -5.9656  -5.9300
    -5.8366  -5.8103  -5.8036  -5.7581  -5.6647  -5.6098  -5.5578  -5.5033
    -5.4818  -5.3532  -5.1758  -5.1300   4.3595   4.4299   4.5130   4.5477
     4.5583   4.5740   4.6328   4.6639   4.8645   4.8938   4.9892   5.0385
    31.4741  31.5028  31.7936  31.8341  31.9752  32.2924  32.5759  32.7400
    33.2105  33.3338  33.8700  34.2217  34.3112  34.3455  34.5442  34.5747
    34.6705  34.8304  35.2768  35.5959  35.8878  35.9750  36.0194  36.2010
    36.2958  36.5951  36.7065  36.8329  36.8357  37.2191  37.3239  37.5283
    38.1582  38.1901  38.6505  38.7270  39.1763  39.5058  39.6580  39.6940
    39.9076  39.9372  40.9520  41.0962  41.5642  41.9579  42.1208  42.5872
    42.8049  43.4679  43.4987  44.0756  44.1703  44.4505  44.5360  44.6691
    45.4040  45.5450  45.7874  45.8729  46.0230  46.5713  47.8568  48.2797
    50.4270  50.5417  51.3352  51.6484  52.5315  54.0140  54.2053  55.3057
    55.6084  56.3317  56.5585  56.8433  56.8574  56.9062  57.4749  57.6101
    57.9293  58.1843  58.2534  58.6014  58.7600  58.9186  59.1609  59.2194
    59.3427  59.6809  60.2140  60.3086  60.4910  60.9596  61.0925  61.1813
    61.5817  61.8366

          k = 0.0000 0.0000-0.2634 (  3690 PWs)   bands (ev):

   -41.4503 -41.4503 -41.3225 -41.3225 -41.2423 -41.2423 -41.1424 -41.1424
   -26.4018 -26.4018 -26.3890 -26.3890  -6.7539  -6.7539  -6.6346  -6.6346
    -6.4921  -6.4921  -6.2735  -6.2735  -6.0495  -6.0495  -5.9965  -5.9965
    -5.8203  -5.8203  -5.7732  -5.7732  -5.5973  -5.5973  -5.5917  -5.5917
    -5.4037  -5.4037  -5.1604  -5.1604   4.3980   4.3980   4.5266   4.5266
     4.5933   4.5933   4.6106   4.6106   4.8677   4.8677   5.0050   5.0050
    31.5191  31.5191  31.5224  31.5224  32.1834  32.1834  33.1912  33.1912
    33.4055  33.4055  33.8243  33.8243  34.6192  34.6192  34.6579  34.6579
    34.9394  34.9394  35.3013  35.3013  35.5503  35.5503  35.8748  35.8748
    36.0352  36.0352  36.9094  36.9094  37.2232  37.2232  37.3701  37.3701
    37.9136  37.9136  38.7159  38.7159  39.2727  39.2727  39.8348  39.8348
    40.4956  40.4956  40.6156  40.6156  41.3139  41.3139  42.3113  42.3113
    43.7856  43.7856  43.9053  43.9053  43.9125  43.9125  44.7153  44.7153
    45.0037  45.0037  45.6548  45.6548  46.3252  46.3252  49.2438  49.2438
    50.6599  50.6599  51.6351  51.6351  53.0870  53.0870  54.1506  54.1506
    56.0445  56.0445  56.4767  56.4767  57.1774  57.1774  57.2152  57.2152
    57.5720  57.5720  58.2663  58.2663  58.6795  58.6796  59.2498  59.2498
    60.2200  60.2200  60.2634  60.2635  60.4660  60.4661  61.0511  61.0510
    61.6977  61.6990

          k = 0.0000 0.2533 0.0000 (  3664 PWs)   bands (ev):

   -41.4386 -41.3725 -41.3242 -41.3153 -41.2602 -41.1917 -41.1846 -41.1545
   -26.4122 -26.4107 -26.3773 -26.3759  -6.6470  -6.6162  -6.4387  -6.3791
    -6.3627  -6.3452  -6.3101  -6.2895  -6.1934  -6.1414  -6.0606  -5.9522
    -5.9237  -5.8286  -5.7397  -5.6977  -5.6194  -5.5784  -5.5729  -5.5469
    -5.4773  -5.3872  -5.3830  -5.2899   4.3789   4.4713   4.4813   4.4866
     4.5306   4.5731   4.6075   4.6206   4.7860   4.8118   4.9482   4.9886
    32.0275  32.1279  32.4507  32.5155  32.5240  32.6490  32.9832  33.1292
    33.1943  33.2846  33.6574  33.9198  34.2181  34.2710  34.3015  34.8432
    34.8712  34.8987  35.2074  35.2581  35.4747  35.8623  36.1904  36.4499
    36.5468  36.7651  36.9068  36.9576  36.9842  37.5454  37.6616  37.7213
    37.9531  37.9766  38.6057  38.6671  39.0202  39.1476  39.2783  40.1161
    40.2613  40.5787  40.7607  41.0164  41.5215  41.8197  42.0696  42.1970
    42.3047  43.0007  43.1240  43.7021  43.8756  44.0067  44.3279  44.4864
    44.6337  44.7208  44.8086  45.2971  45.3741  46.1442  46.5974  46.6773
    47.1826  47.9171  52.8018  53.8957  54.2170  54.7687  55.8850  55.8921
    56.5629  56.5675  56.7916  56.9968  57.6217  57.8564  58.1483  58.2114
    58.3007  58.5345  58.5736  58.5848  58.7215  58.9169  59.1508  59.1530
    59.3304  59.5881  59.7235  60.1049  60.2312  60.2619  60.7928  61.2261
    61.3587  61.9429

          k = 0.0000 0.2533 0.1317 (  3669 PWs)   bands (ev):

   -41.4321 -41.3818 -41.3414 -41.3180 -41.2443 -41.2026 -41.1775 -41.1628
   -26.4138 -26.4098 -26.3799 -26.3778  -6.6389  -6.6162  -6.5189  -6.4279
    -6.4253  -6.3300  -6.2610  -6.2510  -6.1837  -6.1229  -6.0797  -5.9579
    -5.8918  -5.7954  -5.7299  -5.7192  -5.6640  -5.6269  -5.5755  -5.5079
    -5.4620  -5.3914  -5.3452  -5.2971   4.3899   4.4584   4.4808   4.4934
     4.5464   4.5638   4.5853   4.6175   4.7785   4.7924   4.9523   4.9875
    31.9392  32.0418  32.1199  32.4376  32.5199  32.9128  33.0742  33.1344
    33.5332  33.5373  33.9159  34.0301  34.1017  34.2335  34.3759  34.8142
    34.8896  35.1563  35.2404  35.3874  35.6769  35.8041  36.0698  36.1372
    36.3253  36.4697  36.8891  36.9493  37.0293  37.4248  37.6056  37.8737
    38.0443  38.0630  38.0887  38.7887  39.0034  39.1362  39.2531  39.8370
    40.2057  40.3326  40.5602  40.8332  41.2838  41.7605  42.2576  42.6003
    42.7001  42.8717  43.0752  43.5087  43.6330  43.8781  44.2211  44.6246
    44.6917  44.8406  44.8797  45.2184  45.3532  45.9050  46.2655  46.6122
    48.3062  49.4900  53.3016  53.5695  54.0628  54.5200  55.3221  55.7035
    56.0006  56.3982  56.7417  56.7854  57.3543  57.8523  57.9710  58.1852
    58.3496  58.4057  58.5660  58.9111  58.9383  59.0509  59.0583  59.2131
    59.3740  59.9971  60.0296  60.3085  60.4436  60.7163  60.9889  61.2555
    61.4461  61.5248

          k = 0.0000 0.2533-0.2634 (  3666 PWs)   bands (ev):

   -41.4083 -41.4083 -41.3351 -41.3351 -41.2131 -41.2132 -41.1706 -41.1706
   -26.4107 -26.4107 -26.3794 -26.3794  -6.6129  -6.6129  -6.5286  -6.5286
    -6.3846  -6.3846  -6.2148  -6.2148  -6.1709  -6.1709  -6.0131  -6.0131
    -5.7762  -5.7762  -5.7444  -5.7444  -5.6777  -5.6777  -5.5544  -5.5544
    -5.4104  -5.4104  -5.3064  -5.3064   4.4231   4.4231   4.5026   4.5026
     4.5573   4.5573   4.5829   4.5829   4.7784   4.7784   4.9733   4.9733
    31.8544  31.8544  32.1343  32.1343  32.8558  32.8558  33.4670  33.4670
    33.4838  33.4838  34.1175  34.1175  34.1453  34.1453  34.8105  34.8105
    35.0566  35.0566  35.3497  35.3497  35.6086  35.6086  36.0747  36.0747
    36.1262  36.1262  36.9145  36.9145  37.3100  37.3100  37.4948  37.4948
    38.0408  38.0408  38.5913  38.5913  39.0195  39.0195  39.4270  39.4270
    40.0088  40.0088  40.4655  40.4655  41.5303  41.5303  42.4678  42.4678
    43.0104  43.0104  43.4330  43.4330  43.4529  43.4529  44.2877  44.2877
    44.7880  44.7880  45.4032  45.4032  45.5274  45.5274  46.1765  46.1765
    50.6152  50.6152  52.5398  52.5398  54.5478  54.5478  55.0201  55.0201
    55.8024  55.8024  57.1255  57.1255  57.1831  57.1831  57.7878  57.7878
    58.5176  58.5174  59.0387  59.0386  59.1754  59.1754  59.4734  59.4732
    59.8668  59.8667  59.8808  59.8809  60.4453  60.4451  61.6510  61.6511
    61.7254  61.7254

          k =-0.5000 0.0000 0.0000 (  3722 PWs)   bands (ev):

   -41.3812 -41.3812 -41.3457 -41.3457 -41.3003 -41.3003 -41.1667 -41.1667
   -26.4265 -26.4265 -26.4108 -26.4108  -6.9420  -6.9420  -6.5870  -6.5870
    -6.5660  -6.5660  -6.3790  -6.3790  -6.2098  -6.2098  -5.9393  -5.9393
    -5.8016  -5.8016  -5.7949  -5.7949  -5.5017  -5.5017  -5.4360  -5.4360
    -5.3519  -5.3519  -5.1825  -5.1825   4.3392   4.3392   4.4976   4.4976
     4.7096   4.7096   4.7414   4.7414   4.9461   4.9461   4.9509   4.9509
    32.0435  32.0435  32.4890  32.4890  33.2069  33.2069  33.3408  33.3408
    33.5713  33.5713  33.8559  33.8559  34.1391  34.1391  34.5336  34.5336
    34.5895  34.5895  34.8378  34.8378  35.2075  35.2075  35.2576  35.2576
    36.0438  36.0438  36.5889  36.5889  36.8481  36.8481  37.4576  37.4576
    37.5601  37.5601  38.8938  38.8938  39.9900  39.9900  40.3187  40.3187
    40.4016  40.4016  41.5492  41.5492  41.6298  41.6298  42.3895  42.3895
    42.8027  42.8027  43.4047  43.4047  43.5474  43.5474  44.9622  44.9622
    45.0224  45.0224  45.5145  45.5145  46.3715  46.3715  47.1656  47.1656
    47.5590  47.5590  48.4822  48.4822  53.3479  53.3479  53.9725  53.9725
    55.5877  55.5877  55.9504  55.9504  56.2950  56.2950  57.6607  57.6607
    57.8999  57.8999  58.8299  58.8300  58.9670  58.9671  60.1158  60.1160
    60.5109  60.5110  60.8342  60.8345  61.3228  61.3227  61.8978  61.8978
    62.6494  62.6500

          k =-0.5000 0.0000 0.1317 (  3710 PWs)   bands (ev):

   -41.3807 -41.3807 -41.3380 -41.3380 -41.2925 -41.2925 -41.1653 -41.1653
   -26.4253 -26.4253 -26.4082 -26.4082  -6.9196  -6.9196  -6.7249  -6.7249
    -6.4691  -6.4691  -6.3602  -6.3602  -6.1081  -6.1081  -5.9702  -5.9702
    -5.9398  -5.9398  -5.7094  -5.7094  -5.4962  -5.4962  -5.4085  -5.4085
    -5.3508  -5.3508  -5.1848  -5.1848   4.3426   4.3426   4.5200   4.5200
     4.7065   4.7065   4.7305   4.7305   4.9443   4.9443   4.9540   4.9540
    32.1713  32.1713  32.3652  32.3652  33.1049  33.1049  33.2563  33.2563
    33.7572  33.7572  33.9691  33.9691  34.1326  34.1326  34.4920  34.4920
    34.6873  34.6873  34.9619  34.9619  35.2666  35.2666  35.4893  35.4893
    35.9496  35.9496  36.2140  36.2140  37.0950  37.0950  37.2759  37.2759
    37.8164  37.8164  38.8828  38.8828  39.1565  39.1565  40.1117  40.1117
    40.2034  40.2034  41.2322  41.2322  42.3009  42.3009  42.4512  42.4512
    42.7886  42.7886  43.3246  43.3246  43.9412  43.9412  44.6115  44.6115
    45.2665  45.2665  45.9779  45.9779  46.2634  46.2634  46.5950  46.5950
    47.8576  47.8576  49.2611  49.2611  52.0460  52.0460  54.2535  54.2535
    56.0578  56.0577  56.5569  56.5569  56.8217  56.8217  57.4974  57.4974
    57.5913  57.5913  58.2102  58.2102  59.1423  59.1422  59.8326  59.8326
    60.2594  60.2594  60.9630  60.9631  61.2771  61.2772  61.9421  61.9422
    62.4215  62.4214

          k =-0.5000 0.0000-0.2634 (  3680 PWs)   bands (ev):

   -41.3607 -41.3607 -41.3343 -41.3343 -41.2784 -41.2784 -41.1640 -41.1640
   -26.4197 -26.4197 -26.4059 -26.4059  -6.9020  -6.9020  -6.7614  -6.7614
    -6.5164  -6.5164  -6.2067  -6.2067  -6.0768  -6.0768  -6.0004  -6.0004
    -5.9778  -5.9778  -5.7181  -5.7181  -5.4832  -5.4832  -5.3706  -5.3706
    -5.3366  -5.3366  -5.1747  -5.1747   4.3534   4.3534   4.5427   4.5427
     4.7101   4.7101   4.7259   4.7259   4.9448   4.9448   4.9579   4.9579
    32.0806  32.0806  32.7538  32.7538  32.8409  32.8409  33.0818  33.0818
    33.6720  33.6720  34.2152  34.2152  34.3156  34.3156  34.6554  34.6554
    34.7850  34.7850  34.9236  34.9236  35.2065  35.2065  35.3268  35.3268
    36.2715  36.2715  36.5271  36.5271  36.6008  36.6008  36.9853  36.9853
    38.2436  38.2436  38.6237  38.6237  38.9567  38.9567  39.5975  39.5975
    40.2440  40.2440  40.9151  40.9151  42.3111  42.3111  42.5686  42.5686
    42.8525  42.8525  43.9015  43.9015  44.0154  44.0154  44.1698  44.1698
    45.7804  45.7804  45.8237  45.8237  46.3097  46.3097  46.3731  46.3731
    48.3754  48.3754  50.3301  50.3301  50.3467  50.3467  54.7816  54.7816
    56.2327  56.2327  56.2830  56.2830  56.9895  56.9895  57.8280  57.8280
    57.9356  57.9356  57.9903  57.9904  59.1930  59.1931  59.5557  59.5556
    59.9204  59.9205  60.7368  60.7368  61.3058  61.3054  62.4210  62.4214
    62.4424  62.4420

          k =-0.5000 0.2533 0.0000 (  3686 PWs)   bands (ev):

   -41.3516 -41.3516 -41.3435 -41.3435 -41.2610 -41.2610 -41.1947 -41.1947
   -26.4227 -26.4227 -26.4123 -26.4123  -6.7182  -6.7182  -6.5511  -6.5511
    -6.5226  -6.5226  -6.2727  -6.2727  -6.1113  -6.1113  -5.9890  -5.9890
    -5.9184  -5.9184  -5.7683  -5.7683  -5.4908  -5.4908  -5.4776  -5.4776
    -5.3772  -5.3772  -5.3208  -5.3208   4.3724   4.3724   4.4525   4.4525
     4.7087   4.7087   4.7242   4.7242   4.8902   4.8902   4.8925   4.8925
    32.7109  32.7109  32.9581  32.9581  33.3038  33.3038  33.4699  33.4699
    33.8679  33.8679  33.8831  33.8831  34.5176  34.5176  34.7504  34.7504
    35.0434  35.0434  35.2485  35.2485  35.4011  35.4011  35.5886  35.5886
    35.9868  35.9868  36.0434  36.0434  36.9836  36.9836  37.3909  37.3909
    37.7714  37.7714  38.4255  38.4255  39.0213  39.0213  39.7032  39.7032
    40.0476  40.0476  41.3644  41.3644  41.8097  41.8097  41.8588  41.8588
    42.8146  42.8146  43.2017  43.2017  43.4202  43.4202  44.2618  44.2618
    44.6332  44.6332  44.6575  44.6575  45.0196  45.0196  46.7220  46.7220
    49.1718  49.1718  49.6114  49.6114  51.1934  51.1934  52.2780  52.2780
    55.7267  55.7267  56.5711  56.5711  57.9131  57.9131  58.2406  58.2405
    58.6171  58.6172  59.1950  59.1950  59.5975  59.5975  60.4687  60.4685
    60.7302  60.7306  61.1065  61.1069  61.6961  61.6963  62.0285  62.0287
    62.5292  62.5290

          k =-0.5000 0.2533 0.1317 (  3692 PWs)   bands (ev):

   -41.3599 -41.3599 -41.3433 -41.3433 -41.2609 -41.2609 -41.1941 -41.1941
   -26.4205 -26.4205 -26.4159 -26.4159  -6.7413  -6.7413  -6.5649  -6.5649
    -6.4588  -6.4588  -6.3437  -6.3437  -6.1341  -6.1341  -6.0228  -6.0228
    -5.8433  -5.8433  -5.6943  -5.6943  -5.5220  -5.5220  -5.4893  -5.4893
    -5.3905  -5.3905  -5.3287  -5.3287   4.3800   4.3800   4.4622   4.4622
     4.6975   4.6975   4.7114   4.7114   4.8792   4.8792   4.8915   4.8915
    32.6418  32.6418  32.9388  32.9388  33.2881  33.2881  33.6343  33.6343
    33.8251  33.8251  34.1022  34.1022  34.4550  34.4550  34.8022  34.8022
    34.9201  34.9201  35.2602  35.2602  35.3966  35.3966  35.7161  35.7161
    35.8581  35.8581  36.3582  36.3582  37.0513  37.0513  37.2631  37.2631
    37.9469  37.9469  38.2445  38.2445  38.8604  38.8604  39.4906  39.4906
    40.0197  40.0197  40.6212  40.6212  41.8778  41.8778  42.2180  42.2180
    42.7511  42.7511  42.9643  42.9643  43.3084  43.3084  44.1062  44.1062
    44.5972  44.5972  45.0549  45.0549  45.4187  45.4188  47.0399  47.0399
    48.6265  48.6265  50.3767  50.3767  50.5250  50.5250  53.3363  53.3363
    55.8657  55.8657  56.5164  56.5164  57.5660  57.5660  58.2830  58.2830
    58.4840  58.4839  59.1393  59.1393  59.8589  59.8588  60.2860  60.2860
    60.6469  60.6471  61.0647  61.0647  61.3707  61.3708  61.7174  61.7173
    62.1328  62.1328

          k =-0.5000 0.2533-0.2634 (  3704 PWs)   bands (ev):

   -41.3606 -41.3606 -41.3470 -41.3470 -41.2695 -41.2695 -41.1976 -41.1976
   -26.4206 -26.4206 -26.4190 -26.4190  -6.7685  -6.7685  -6.5146  -6.5146
    -6.4669  -6.4669  -6.4015  -6.4015  -6.1948  -6.1948  -6.0193  -6.0193
    -5.7703  -5.7703  -5.6197  -5.6197  -5.5618  -5.5618  -5.5417  -5.5417
    -5.3720  -5.3720  -5.3411  -5.3411   4.3781   4.3781   4.4711   4.4711
     4.6865   4.6865   4.6996   4.6996   4.8745   4.8745   4.8807   4.8807
    32.4724  32.4724  33.1783  33.1783  33.3033  33.3033  33.6722  33.6722
    33.7830  33.7830  34.1562  34.1562  34.4659  34.4659  34.8387  34.8387
    34.9522  34.9522  35.1380  35.1380  35.3457  35.3457  35.8541  35.8541
    36.0630  36.0630  36.6733  36.6733  36.7596  36.7596  37.2326  37.2326
    37.6613  37.6613  38.6067  38.6067  38.7292  38.7292  39.3382  39.3382
    39.9027  39.9027  40.1495  40.1495  41.9405  41.9405  42.0616  42.0616
    42.6944  42.6944  42.7685  42.7685  43.3361  43.3361  43.9020  43.9020
    44.7287  44.7287  45.1983  45.1983  46.3851  46.3851  46.7816  46.7816
    48.8679  48.8679  49.4105  49.4105  51.1668  51.1668  54.8043  54.8043
    55.2671  55.2671  56.9777  56.9777  57.0115  57.0115  58.0033  58.0033
    58.1416  58.1416  59.2830  59.2831  59.8462  59.8463  60.1295  60.1296
    60.3113  60.3114  61.0958  61.0961  61.2699  61.2699  61.6694  61.6688
    62.1638  62.1645

     the Fermi energy is    56.1996 ev

!    total energy              =   -3248.63619603 Ry
     Harris-Foulkes estimate   =   -3248.63626907 Ry
     estimated scf accuracy    <       0.00009022 Ry

     The total energy is the sum of the following terms:

     one-electron contribution =     242.00203437 Ry
     hartree contribution      =     265.04351717 Ry
     xc contribution           =    -311.44072509 Ry
     ewald contribution        =   -3443.88744500 Ry
     smearing contrib. (-TS)   =      -0.35357749 Ry

     convergence has been achieved in   8 iterations

     Forces acting on atoms (Ry/au):

     atom    1 type  1   force =     0.00000000   -0.11301311   -0.07632807
     atom    2 type  1   force =     0.00000000    0.11301311    0.07632807
     atom    3 type  1   force =     0.00000000   -0.11301311    0.07632807
     atom    4 type  1   force =     0.00000000    0.11301311   -0.07632807
     atom    5 type  1   force =     0.00000000    0.12971614   -0.15234039
     atom    6 type  1   force =     0.00000000   -0.12971614    0.15234039
     atom    7 type  1   force =     0.00000000    0.12971614    0.15234039
     atom    8 type  1   force =     0.00000000   -0.12971614   -0.15234039
     atom    9 type  2   force =     0.00000000   -0.20946797    0.02010002
     atom   10 type  2   force =     0.00000000    0.20946797   -0.02010002
     atom   11 type  2   force =     0.00000000   -0.20946797   -0.02010002
     atom   12 type  2   force =     0.00000000    0.20946797    0.02010002

     Total force =     0.641600     Total SCF correction =     0.000000


     entering subroutine stress ...

          total   stress  (Ry/bohr**3)                   (kbar)     P= 7332.35
   0.05211788   0.00000000   0.00000000       7666.80      0.00      0.00
   0.00000000   0.04739290   0.00000000          0.00   6971.73      0.00
   0.00000000   0.00000000   0.05002213          0.00      0.00   7358.51


     BFGS Geometry Optimization

     number of scf cycles    =   1
     number of bfgs steps    =   0

     enthalpy new            =   -3248.6361960331 Ry

     new trust radius        =       0.5000000000 bohr
     new conv_thr            =       0.0001000000 Ry

     new unit-cell volume =   1090.50594 a.u.^3 (   161.59631 Ang^3 )

CELL_PARAMETERS (alat=  7.01510508)
   1.085136619   0.000000000   0.000000000
   0.000000000   1.417842852   0.000000000
   0.000000000   0.000000000   2.053113584

ATOMIC_POSITIONS (crystal)
Co       0.750000000   0.825601091   0.435361425
Co       0.250000000   0.174398909   0.564638575
Co       0.750000000   0.325601091   0.064638575
Co       0.250000000   0.674398909   0.935361425
Co       0.250000000   0.538004133   0.281597399
Co       0.750000000   0.461995867   0.718402601
Co       0.250000000   0.038004133   0.218402601
Co       0.750000000   0.961995867   0.781597399
Si       0.250000000   0.201371382   0.893698640
Si       0.750000000   0.798628618   0.106301360
Si       0.250000000   0.701371382   0.606301360
Si       0.750000000   0.298628618   0.393698640



     Writing output data file Prototype-La-oP12-Co2Si.save
     NEW-OLD atomic charge density approx. for the potential
     NEW k-points:
        k(    1) = (   0.0000000   0.0000000   0.0000000), wk =   0.0833333
        k(    2) = (   0.0000000   0.0000000   0.1217663), wk =   0.1666667
        k(    3) = (   0.0000000   0.0000000  -0.2435326), wk =   0.0833333
        k(    4) = (   0.0000000   0.2350989   0.0000000), wk =   0.1666667
        k(    5) = (   0.0000000   0.2350989   0.1217663), wk =   0.3333333
        k(    6) = (   0.0000000   0.2350989  -0.2435326), wk =   0.1666667
        k(    7) = (  -0.4607715   0.0000000   0.0000000), wk =   0.0833333
        k(    8) = (  -0.4607715   0.0000000   0.1217663), wk =   0.1666667
        k(    9) = (  -0.4607715   0.0000000  -0.2435326), wk =   0.0833333
        k(   10) = (  -0.4607715   0.2350989   0.0000000), wk =   0.1666667
        k(   11) = (  -0.4607715   0.2350989   0.1217663), wk =   0.3333333
        k(   12) = (  -0.4607715   0.2350989  -0.2435326), wk =   0.1666667

     total cpu time spent up to now is      159.1 secs

     Self-consistent Calculation

     iteration #  1     ecut=    40.00 Ry     beta=0.70
     CG style diagonalization
     c_bands:  1 eigenvalues not converged
     c_bands:  1 eigenvalues not converged
     c_bands:  1 eigenvalues not converged
     c_bands:  1 eigenvalues not converged
     c_bands:  1 eigenvalues not converged
     c_bands:  2 eigenvalues not converged
     ethr =  1.00E-06,  avg # of iterations = 23.0

     total cpu time spent up to now is      231.1 secs

     total energy              =   -2885.75329005 Ry
     Harris-Foulkes estimate   =   -3274.07346564 Ry
     estimated scf accuracy    <     500.47086683 Ry

     iteration #  2     ecut=    40.00 Ry     beta=0.70
     CG style diagonalization
     c_bands:  4 eigenvalues not converged
     c_bands:  1 eigenvalues not converged
     ethr =  1.00E-02,  avg # of iterations = 10.3

     total cpu time spent up to now is      264.6 secs

     total energy              =   -3279.00347919 Ry
     Harris-Foulkes estimate   =   -3490.23421709 Ry
     estimated scf accuracy    <     385.42950075 Ry

     iteration #  3     ecut=    40.00 Ry     beta=0.70
     CG style diagonalization
     c_bands:  1 eigenvalues not converged
     ethr =  1.00E-02,  avg # of iterations =  6.5

     total cpu time spent up to now is      286.5 secs

     total energy              =   -3276.35454353 Ry
     Harris-Foulkes estimate   =   -3299.83364768 Ry
     estimated scf accuracy    <      85.16998178 Ry

     iteration #  4     ecut=    40.00 Ry     beta=0.70
     CG style diagonalization
     ethr =  1.00E-02,  avg # of iterations =  4.0

     total cpu time spent up to now is      299.0 secs

     total energy              =   -3274.14768463 Ry
     Harris-Foulkes estimate   =   -3279.91031067 Ry
     estimated scf accuracy    <      27.34686816 Ry

     iteration #  5     ecut=    40.00 Ry     beta=0.70
     CG style diagonalization
     ethr =  1.00E-02,  avg # of iterations =  4.3

     total cpu time spent up to now is      311.1 secs

     total energy              =   -3271.19156263 Ry
     Harris-Foulkes estimate   =   -3272.64814221 Ry
     estimated scf accuracy    <       6.82382230 Ry

     iteration #  6     ecut=    40.00 Ry     beta=0.70
     CG style diagonalization
     ethr =  2.80E-03,  avg # of iterations = 13.3

     total cpu time spent up to now is      348.4 secs

     total energy              =   -3260.91143776 Ry
     Harris-Foulkes estimate   =   -3269.58924467 Ry
     estimated scf accuracy    <      26.89671303 Ry

     iteration #  7     ecut=    40.00 Ry     beta=0.70
     CG style diagonalization
     ethr =  2.80E-03,  avg # of iterations =  3.0

     total cpu time spent up to now is      358.1 secs

     total energy              =   -3260.61379207 Ry
     Harris-Foulkes estimate   =   -3261.43682335 Ry
     estimated scf accuracy    <       3.74306061 Ry

     iteration #  8     ecut=    40.00 Ry     beta=0.70
     CG style diagonalization
     ethr =  1.53E-03,  avg # of iterations = 18.2

     total cpu time spent up to now is      417.3 secs

     total energy              =   -3259.76732481 Ry
     Harris-Foulkes estimate   =   -3260.01926613 Ry
     estimated scf accuracy    <       2.00215518 Ry

     iteration #  9     ecut=    40.00 Ry     beta=0.70
     CG style diagonalization
     ethr =  8.21E-04,  avg # of iterations = 19.9

     total cpu time spent up to now is      481.7 secs

     total energy              =   -3259.16349117 Ry
     Harris-Foulkes estimate   =   -3259.49797416 Ry
     estimated scf accuracy    <       2.81793017 Ry

     iteration # 10     ecut=    40.00 Ry     beta=0.70
     CG style diagonalization
     ethr =  8.21E-04,  avg # of iterations = 18.8

     total cpu time spent up to now is      544.2 secs

     total energy              =   -3249.33907262 Ry
     Harris-Foulkes estimate   =   -3260.08833756 Ry
     estimated scf accuracy    <     224.49742574 Ry

     iteration # 11     ecut=    40.00 Ry     beta=0.70
     CG style diagonalization
     ethr =  8.21E-04,  avg # of iterations = 18.7

     total cpu time spent up to now is      606.7 secs

     total energy              =   -3291.62737177 Ry
     Harris-Foulkes estimate   =   -3262.54109862 Ry
     estimated scf accuracy    <     208.85198920 Ry

     iteration # 12     ecut=    40.00 Ry     beta=0.70
     CG style diagonalization
     ethr =  8.21E-04,  avg # of iterations = 18.5

     total cpu time spent up to now is      667.2 secs

     total energy              =   -3279.37441719 Ry
     Harris-Foulkes estimate   =   -3257.18344042 Ry
     estimated scf accuracy    <     255.95380461 Ry

     iteration # 13     ecut=    40.00 Ry     beta=0.70
     CG style diagonalization
     ethr =  8.21E-04,  avg # of iterations = 18.5

     negative rho (up, down):  0.201E+00 0.000E+00

     total cpu time spent up to now is      723.0 secs

     total energy              =   -3312.83971235 Ry
     Harris-Foulkes estimate   =   -3255.68909152 Ry
     estimated scf accuracy    <     293.02622872 Ry

     iteration # 14     ecut=    40.00 Ry     beta=0.70
     CG style diagonalization
     ethr =  8.21E-04,  avg # of iterations = 18.1

     total cpu time spent up to now is      781.9 secs

     total energy              =   -3196.07482240 Ry
     Harris-Foulkes estimate   =   -3259.86503601 Ry
     estimated scf accuracy    <     394.42096430 Ry

     iteration # 15     ecut=    40.00 Ry     beta=0.70
     CG style diagonalization
     ethr =  8.21E-04,  avg # of iterations = 18.4

     total cpu time spent up to now is      840.5 secs

     total energy              =   -3280.25337430 Ry
     Harris-Foulkes estimate   =   -3255.80098126 Ry
     estimated scf accuracy    <     194.53440992 Ry

     iteration # 16     ecut=    40.00 Ry     beta=0.70
     CG style diagonalization
     ethr =  8.21E-04,  avg # of iterations = 18.3

     total cpu time spent up to now is      897.6 secs

     total energy              =   -3247.14592497 Ry
     Harris-Foulkes estimate   =   -3256.22361315 Ry
     estimated scf accuracy    <      95.72040845 Ry

     iteration # 17     ecut=    40.00 Ry     beta=0.70
     CG style diagonalization
     ethr =  8.21E-04,  avg # of iterations = 18.3

     total cpu time spent up to now is      958.1 secs

     total energy              =   -3245.64849850 Ry
     Harris-Foulkes estimate   =   -3255.59798172 Ry
     estimated scf accuracy    <      20.02687820 Ry

     iteration # 18     ecut=    40.00 Ry     beta=0.70
     CG style diagonalization
     ethr =  8.21E-04,  avg # of iterations = 19.9

     total cpu time spent up to now is     1022.1 secs

     total energy              =   -3300.21260388 Ry
     Harris-Foulkes estimate   =   -3323.46807179 Ry
     estimated scf accuracy    <      94.42812600 Ry

     iteration # 19     ecut=    40.00 Ry     beta=0.70
     CG style diagonalization
     ethr =  8.21E-04,  avg # of iterations =  6.5

     total cpu time spent up to now is     1041.7 secs

     total energy              =   -3287.70410782 Ry
     Harris-Foulkes estimate   =   -3297.04743840 Ry
     estimated scf accuracy    <      33.11867128 Ry

     iteration # 20     ecut=    40.00 Ry     beta=0.70
     CG style diagonalization
     ethr =  8.21E-04,  avg # of iterations = 15.5

     total cpu time spent up to now is     1091.2 secs

     total energy              =   -3262.08047163 Ry
     Harris-Foulkes estimate   =   -3282.54289949 Ry
     estimated scf accuracy    <      52.25365842 Ry

     iteration # 21     ecut=    40.00 Ry     beta=0.70
     CG style diagonalization
     ethr =  8.21E-04,  avg # of iterations =  5.3

     total cpu time spent up to now is     1106.6 secs

     total energy              =   -3263.22605817 Ry
     Harris-Foulkes estimate   =   -3263.99129994 Ry
     estimated scf accuracy    <       6.54801712 Ry

     iteration # 22     ecut=    40.00 Ry     beta=0.70
     CG style diagonalization
     ethr =  8.21E-04,  avg # of iterations = 13.6

     total cpu time spent up to now is     1150.1 secs

     total energy              =   -3254.43126758 Ry
     Harris-Foulkes estimate   =   -3262.78294480 Ry
     estimated scf accuracy    <      14.36362893 Ry

     iteration # 23     ecut=    40.00 Ry     beta=0.70
     CG style diagonalization
     ethr =  8.21E-04,  avg # of iterations =  5.2

     total cpu time spent up to now is     1167.1 secs

     total energy              =   -3256.56573799 Ry
     Harris-Foulkes estimate   =   -3256.04191226 Ry
     estimated scf accuracy    <       0.43283864 Ry

     iteration # 24     ecut=    40.00 Ry     beta=0.70
     CG style diagonalization
     ethr =  1.77E-04,  avg # of iterations = 21.9

     total cpu time spent up to now is     1235.3 secs

     total energy              =   -3260.84787761 Ry
     Harris-Foulkes estimate   =   -3261.52485916 Ry
     estimated scf accuracy    <       3.72657085 Ry

     iteration # 25     ecut=    40.00 Ry     beta=0.70
     CG style diagonalization
     ethr =  1.77E-04,  avg # of iterations = 21.7

     total cpu time spent up to now is     1305.2 secs

     total energy              =   -3260.55058531 Ry
     Harris-Foulkes estimate   =   -3260.31271746 Ry
     estimated scf accuracy    <       2.48491947 Ry

     iteration # 26     ecut=    40.00 Ry     beta=0.70
     CG style diagonalization
     ethr =  1.77E-04,  avg # of iterations = 21.6

     total cpu time spent up to now is     1375.3 secs

     total energy              =   -3260.57852403 Ry
     Harris-Foulkes estimate   =   -3260.77632920 Ry
     estimated scf accuracy    <       2.97955733 Ry

     iteration # 27     ecut=    40.00 Ry     beta=0.70
     CG style diagonalization
     ethr =  1.77E-04,  avg # of iterations = 21.6

     total cpu time spent up to now is     1445.1 secs

     total energy              =   -3260.20572881 Ry
     Harris-Foulkes estimate   =   -3260.40507846 Ry
     estimated scf accuracy    <       2.56362796 Ry

     iteration # 28     ecut=    40.00 Ry     beta=0.70
     CG style diagonalization
     ethr =  1.77E-04,  avg # of iterations = 21.7

     total cpu time spent up to now is     1505.9 secs

     total energy              =   -3259.57156626 Ry
     Harris-Foulkes estimate   =   -3260.01580510 Ry
     estimated scf accuracy    <       2.17847417 Ry

     iteration # 29     ecut=    40.00 Ry     beta=0.70
     CG style diagonalization
     ethr =  1.77E-04,  avg # of iterations =  9.3

     total cpu time spent up to now is     1536.6 secs

     total energy              =   -3259.49965431 Ry
     Harris-Foulkes estimate   =   -3259.10306647 Ry
     estimated scf accuracy    <       7.18920095 Ry

     iteration # 30     ecut=    40.00 Ry     beta=0.70
     CG style diagonalization
     ethr =  1.77E-04,  avg # of iterations = 13.9

     total cpu time spent up to now is     1580.7 secs

     total energy              =   -3260.42069324 Ry
     Harris-Foulkes estimate   =   -3259.50202227 Ry
     estimated scf accuracy    <       1.67688177 Ry

     iteration # 31     ecut=    40.00 Ry     beta=0.70
     CG style diagonalization
     ethr =  1.77E-04,  avg # of iterations = 11.3

     total cpu time spent up to now is     1618.0 secs

     total energy              =   -3261.37858825 Ry
     Harris-Foulkes estimate   =   -3261.41649961 Ry
     estimated scf accuracy    <       3.46563732 Ry

     iteration # 32     ecut=    40.00 Ry     beta=0.70
     CG style diagonalization
     ethr =  1.77E-04,  avg # of iterations = 12.5

     total cpu time spent up to now is     1656.7 secs

     total energy              =   -3261.75346002 Ry
     Harris-Foulkes estimate   =   -3261.34902136 Ry
     estimated scf accuracy    <       3.46938785 Ry

     iteration # 33     ecut=    40.00 Ry     beta=0.70
     CG style diagonalization
     ethr =  1.77E-04,  avg # of iterations = 18.9

     total cpu time spent up to now is     1716.7 secs

     total energy              =   -3263.27297359 Ry
     Harris-Foulkes estimate   =   -3262.08066290 Ry
     estimated scf accuracy    <      12.89190110 Ry

     iteration # 34     ecut=    40.00 Ry     beta=0.70
     CG style diagonalization
     ethr =  1.77E-04,  avg # of iterations =  4.6

     total cpu time spent up to now is     1730.3 secs

     total energy              =   -3262.65089957 Ry
     Harris-Foulkes estimate   =   -3263.29128580 Ry
     estimated scf accuracy    <       5.48326847 Ry

     iteration # 35     ecut=    40.00 Ry     beta=0.70
     CG style diagonalization
     ethr =  1.77E-04,  avg # of iterations = 14.4

     total cpu time spent up to now is     1776.0 secs

     total energy              =   -3261.86809842 Ry
     Harris-Foulkes estimate   =   -3262.21979533 Ry
     estimated scf accuracy    <      13.25132919 Ry

     iteration # 36     ecut=    40.00 Ry     beta=0.70
     CG style diagonalization
     ethr =  1.77E-04,  avg # of iterations =  9.4

     total cpu time spent up to now is     1805.2 secs

     total energy              =   -3261.26850370 Ry
     Harris-Foulkes estimate   =   -3261.87142234 Ry
     estimated scf accuracy    <      12.54548933 Ry

     iteration # 37     ecut=    40.00 Ry     beta=0.70
     CG style diagonalization
     ethr =  1.77E-04,  avg # of iterations =  4.5

     total cpu time spent up to now is     1817.5 secs

     total energy              =   -3261.35881095 Ry
     Harris-Foulkes estimate   =   -3261.27487101 Ry
     estimated scf accuracy    <       0.07770832 Ry

     iteration # 38     ecut=    40.00 Ry     beta=0.70
     CG style diagonalization
     c_bands:  1 eigenvalues not converged
     ethr =  3.18E-05,  avg # of iterations = 18.3

     total cpu time spent up to now is     1873.9 secs

     total energy              =   -3259.65049381 Ry
     Harris-Foulkes estimate   =   -3262.12209470 Ry
     estimated scf accuracy    <      12.95458340 Ry

     iteration # 39     ecut=    40.00 Ry     beta=0.70
     CG style diagonalization
     ethr =  3.18E-05,  avg # of iterations =  7.6

     total cpu time spent up to now is     1895.9 secs

     total energy              =   -3259.48326593 Ry
     Harris-Foulkes estimate   =   -3259.73705208 Ry
     estimated scf accuracy    <       1.83009500 Ry

     iteration # 40     ecut=    40.00 Ry     beta=0.70
     CG style diagonalization
     c_bands:  1 eigenvalues not converged
     ethr =  3.18E-05,  avg # of iterations = 10.5

     total cpu time spent up to now is     1928.9 secs

     total energy              =   -3259.00277208 Ry
     Harris-Foulkes estimate   =   -3259.18790406 Ry
     estimated scf accuracy    <       7.33609876 Ry

     iteration # 41     ecut=    40.00 Ry     beta=0.70
     CG style diagonalization
     c_bands:  1 eigenvalues not converged
     ethr =  3.18E-05,  avg # of iterations =  6.7

     total cpu time spent up to now is     1950.4 secs

     total energy              =   -3258.01156342 Ry
     Harris-Foulkes estimate   =   -3259.00500913 Ry
     estimated scf accuracy    <       6.95916779 Ry

     iteration # 42     ecut=    40.00 Ry     beta=0.70
     CG style diagonalization
     ethr =  3.18E-05,  avg # of iterations = 10.9

     total cpu time spent up to now is     1983.4 secs

     total energy              =   -3257.63980372 Ry
     Harris-Foulkes estimate   =   -3258.04155089 Ry
     estimated scf accuracy    <       5.02171172 Ry

     iteration # 43     ecut=    40.00 Ry     beta=0.70
     CG style diagonalization
     ethr =  3.18E-05,  avg # of iterations =  4.9

     total cpu time spent up to now is     1998.6 secs

     total energy              =   -3258.04289376 Ry
     Harris-Foulkes estimate   =   -3257.64562881 Ry
     estimated scf accuracy    <       4.27155565 Ry

     iteration # 44     ecut=    40.00 Ry     beta=0.70
     CG style diagonalization
     c_bands:  2 eigenvalues not converged
     ethr =  3.18E-05,  avg # of iterations =  6.8

     total cpu time spent up to now is     2019.4 secs

     total energy              =   -3258.17410281 Ry
     Harris-Foulkes estimate   =   -3258.04747076 Ry
     estimated scf accuracy    <      15.24331821 Ry

     iteration # 45     ecut=    40.00 Ry     beta=0.70
     CG style diagonalization
     ethr =  3.18E-05,  avg # of iterations = 17.7

     total cpu time spent up to now is     2074.3 secs

     total energy              =   -3258.27419102 Ry
     Harris-Foulkes estimate   =   -3257.97551803 Ry
     estimated scf accuracy    <       4.88618257 Ry

     iteration # 46     ecut=    40.00 Ry     beta=0.70
     CG style diagonalization
     ethr =  3.18E-05,  avg # of iterations =  3.0

     total cpu time spent up to now is     2083.1 secs

     total energy              =   -3258.08003322 Ry
     Harris-Foulkes estimate   =   -3258.27754698 Ry
     estimated scf accuracy    <       0.54497186 Ry

     iteration # 47     ecut=    40.00 Ry     beta=0.70
     CG style diagonalization
     ethr =  3.18E-05,  avg # of iterations =  7.5

     total cpu time spent up to now is     2105.3 secs

     total energy              =   -3259.05106120 Ry
     Harris-Foulkes estimate   =   -3259.05129438 Ry
     estimated scf accuracy    <       0.17698240 Ry

     iteration # 48     ecut=    40.00 Ry     beta=0.70
     CG style diagonalization
     c_bands:  1 eigenvalues not converged
     c_bands:  1 eigenvalues not converged
     ethr =  3.18E-05,  avg # of iterations = 17.9

     total cpu time spent up to now is     2155.4 secs

     total energy              =   -3259.05628463 Ry
     Harris-Foulkes estimate   =   -3259.05254994 Ry
     estimated scf accuracy    <       0.21530090 Ry

     iteration # 49     ecut=    40.00 Ry     beta=0.70
     CG style diagonalization
     ethr =  3.18E-05,  avg # of iterations =  4.8

 %%%%%%%%%%%%%%%%%%%%%%%%%%%%%%%%%%%%%%%%%%%%%%%%%%%%%%%%%%%%%%%%%%%%%%%%%%%%%%
     Error in routine create_directory: (29):
     ./oP12-Co2Si-out/Prototype-La-oP12-Co2Si.save non existent or non writable
 %%%%%%%%%%%%%%%%%%%%%%%%%%%%%%%%%%%%%%%%%%%%%%%%%%%%%%%%%%%%%%%%%%%%%%%%%%%%%%

     stopping ...

 %%%%%%%%%%%%%%%%%%%%%%%%%%%%%%%%%%%%%%%%%%%%%%%%%%%%%%%%%%%%%%%%%%%%%%%%%%%%%%
     Error in routine create_directory: (29):
     ./oP12-Co2Si-out/Prototype-La-oP12-Co2Si.save non existent or non writable
 %%%%%%%%%%%%%%%%%%%%%%%%%%%%%%%%%%%%%%%%%%%%%%%%%%%%%%%%%%%%%%%%%%%%%%%%%%%%%%

     stopping ...

 %%%%%%%%%%%%%%%%%%%%%%%%%%%%%%%%%%%%%%%%%%%%%%%%%%%%%%%%%%%%%%%%%%%%%%%%%%%%%%
     Error in routine create_directory: (29):
     ./oP12-Co2Si-out/Prototype-La-oP12-Co2Si.save non existent or non writable
 %%%%%%%%%%%%%%%%%%%%%%%%%%%%%%%%%%%%%%%%%%%%%%%%%%%%%%%%%%%%%%%%%%%%%%%%%%%%%%

     stopping ...

 %%%%%%%%%%%%%%%%%%%%%%%%%%%%%%%%%%%%%%%%%%%%%%%%%%%%%%%%%%%%%%%%%%%%%%%%%%%%%%
     Error in routine create_directory: (29):
     ./oP12-Co2Si-out/Prototype-La-oP12-Co2Si.save non existent or non writable
 %%%%%%%%%%%%%%%%%%%%%%%%%%%%%%%%%%%%%%%%%%%%%%%%%%%%%%%%%%%%%%%%%%%%%%%%%%%%%%

     stopping ...
