
     Program PWSCF v.5.0.2 starts on 23Mar2018 at  1: 1:24 

     This program is part of the open-source Quantum ESPRESSO suite
     for quantum simulation of materials; please cite
         "P. Giannozzi et al., J. Phys.:Condens. Matter 21 395502 (2009);
          URL http://www.quantum-espresso.org", 
     in publications or presentations arising from this work. More details at
     http://www.quantum-espresso.org/quote.php

     Parallel version (MPI), running on     4 processors
     R & G space division:  proc/nbgrp/npool/nimage =       4

     Current dimensions of program PWSCF are:
     Max number of different atomic species (ntypx) = 10
     Max number of k-points (npk) =  40000
     Max angular momentum in pseudopotentials (lmaxx) =  3
     Waiting for input...
     Reading input from standard input

     Subspace diagonalization in iterative solution of the eigenvalue problem:
     a serial algorithm will be used

 
     Parallelization info
     --------------------
     sticks:   dense  smooth     PW     G-vecs:    dense   smooth      PW
     Min         207     207     61                 7381     7381    1191
     Max         208     208     62                 7386     7386    1192
     Sum         829     829    247                29529    29529    4767
 


     bravais-lattice index     =            0
     lattice parameter (alat)  =       7.0151  a.u.
     unit-cell volume          =     862.2778 (a.u.)^3
     number of atoms/cell      =           12
     number of atomic types    =            2
     number of electrons       =       244.00
     number of Kohn-Sham states=          146
     kinetic-energy cutoff     =      40.0000  Ry
     charge density cutoff     =     160.0000  Ry
     convergence threshold     =      1.0E-04
     mixing beta               =       0.7000
     number of iterations used =            8  plain     mixing
     Exchange-correlation      = SLA-PZ-NOGX-NOGC ( 1 1 0 0 0)
     EXX-fraction              =        0.00
     nstep                     =           50


     celldm(1)=   7.015105  celldm(2)=   0.000000  celldm(3)=   0.000000
     celldm(4)=   0.000000  celldm(5)=   0.000000  celldm(6)=   0.000000

     crystal axes: (cart. coord. in units of alat)
               a(1) = (   1.000000   0.000000   0.000000 )  
               a(2) = (   0.000000   1.315963   0.000000 )  
               a(3) = (   0.000000   0.000000   1.898020 )  

     reciprocal axes: (cart. coord. in units 2 pi/alat)
               b(1) = (  1.000000  0.000000  0.000000 )  
               b(2) = (  0.000000  0.759900  0.000000 )  
               b(3) = (  0.000000  0.000000  0.526865 )  


     PseudoPot. # 1 for Ho read from file:
     /home/cwx6513/pp.La/Ho.UPF
     MD5 check sum: f307ee11bce99f5b724fa279e3790763
     Pseudo is Norm-conserving, Zval = 21.0
     Generated in analytical, separable form
     Using radial grid of 1265 points,  6 beta functions with: 
                l(1) =   0
                l(2) =   0
                l(3) =   1
                l(4) =   1
                l(5) =   2
                l(6) =   3

     PseudoPot. # 2 for Tb read from file:
     /home/cwx6513/pp.La/Tb.UPF
     MD5 check sum: 3d6088a3f0cf7fd2e110c43f7f8e95c2
     Pseudo is Norm-conserving, Zval = 19.0
     Generated in analytical, separable form
     Using radial grid of 1263 points,  6 beta functions with: 
                l(1) =   0
                l(2) =   0
                l(3) =   1
                l(4) =   1
                l(5) =   2
                l(6) =   3

     atomic species   valence    mass     pseudopotential
        Co            21.00    58.93320     Ho( 1.00)
        Si            19.00    28.08550     Tb( 1.00)

      8 Sym. Ops., with inversion, found ( 6 have fractional translation)



   Cartesian axes

     site n.     atom                  positions (alat units)
         1           Co  tau(   1) = (   0.7500000   1.0875135   0.8270358  )
         2           Co  tau(   2) = (   0.2500000   0.2284499   1.0709846  )
         3           Co  tau(   3) = (   0.7500000   0.4295318   0.1219744  )
         4           Co  tau(   4) = (   0.2500000   0.8864316   1.7760460  )
         5           Co  tau(   5) = (   0.2500000   0.7067855   0.5358966  )
         6           Co  tau(   6) = (   0.7500000   0.6091779   1.3621238  )
         7           Co  tau(   7) = (   0.2500000   0.0488038   0.4131136  )
         8           Co  tau(   8) = (   0.7500000   1.2671596   1.4849068  )
         9           Si  tau(   9) = (   0.2500000   0.2669484   1.6960710  )
        10           Si  tau(  10) = (   0.7500000   1.0490149   0.2019494  )
        11           Si  tau(  11) = (   0.2500000   0.9249301   1.1509596  )
        12           Si  tau(  12) = (   0.7500000   0.3910333   0.7470608  )

     number of k points=    12  gaussian smearing, width (Ry)=  0.1000
                       cart. coord. in units 2pi/alat
        k(    1) = (   0.0000000   0.0000000   0.0000000), wk =   0.0833333
        k(    2) = (   0.0000000   0.0000000   0.1317162), wk =   0.1666667
        k(    3) = (   0.0000000   0.0000000  -0.2634324), wk =   0.0833333
        k(    4) = (   0.0000000   0.2532999   0.0000000), wk =   0.1666667
        k(    5) = (   0.0000000   0.2532999   0.1317162), wk =   0.3333333
        k(    6) = (   0.0000000   0.2532999  -0.2634324), wk =   0.1666667
        k(    7) = (  -0.5000000   0.0000000   0.0000000), wk =   0.0833333
        k(    8) = (  -0.5000000   0.0000000   0.1317162), wk =   0.1666667
        k(    9) = (  -0.5000000   0.0000000  -0.2634324), wk =   0.0833333
        k(   10) = (  -0.5000000   0.2532999   0.0000000), wk =   0.1666667
        k(   11) = (  -0.5000000   0.2532999   0.1317162), wk =   0.3333333
        k(   12) = (  -0.5000000   0.2532999  -0.2634324), wk =   0.1666667

     Dense  grid:    29529 G-vectors     FFT dimensions: (  30,  40,  54)

     Largest allocated arrays     est. size (Mb)     dimensions
        Kohn-Sham Wavefunctions         2.05 Mb     (    922,  146)
        NL pseudopotentials             3.38 Mb     (    922,  240)
        Each V/rho on FFT grid          0.26 Mb     (  16800)
        Each G-vector array             0.06 Mb     (   7386)
        G-vector shells                 0.06 Mb     (   7386)
     Largest temporary arrays     est. size (Mb)     dimensions
        Each subspace H/S matrix        0.33 Mb     ( 146, 146)
        Each <psi_i|beta_j> matrix      0.53 Mb     (    240,  146)
        Arrays for rho mixing           2.05 Mb     (  16800,   8)

     Initial potential from superposition of free atoms

     Starting from uniform charge
     Starting wfc are    0 randomized atomic wfcs

     total cpu time spent up to now is        3.2 secs

     Self-consistent Calculation

     iteration #  1     ecut=    40.00 Ry     beta=0.70
     CG style diagonalization
     c_bands:  1 eigenvalues not converged
     c_bands:  2 eigenvalues not converged
     c_bands:  4 eigenvalues not converged
     c_bands:  2 eigenvalues not converged
     c_bands:  2 eigenvalues not converged
     c_bands:  1 eigenvalues not converged
     c_bands:  1 eigenvalues not converged
     c_bands:  2 eigenvalues not converged
     ethr =  1.00E-02,  avg # of iterations = 11.1

     total cpu time spent up to now is       45.3 secs

     total energy              =   -3035.72749470 Ry
     Harris-Foulkes estimate   =   -3622.83824322 Ry
     estimated scf accuracy    <     766.54841317 Ry

     iteration #  2     ecut=    40.00 Ry     beta=0.70
     CG style diagonalization
     c_bands:  1 eigenvalues not converged
     ethr =  1.00E-02,  avg # of iterations =  8.8

     total cpu time spent up to now is       81.2 secs

     total energy              =   -3227.72197310 Ry
     Harris-Foulkes estimate   =   -3273.83724205 Ry
     estimated scf accuracy    <      63.87478840 Ry

     iteration #  3     ecut=    40.00 Ry     beta=0.70
     CG style diagonalization
     ethr =  1.00E-02,  avg # of iterations =  4.0

     total cpu time spent up to now is       95.3 secs

     total energy              =   -3244.12077556 Ry
     Harris-Foulkes estimate   =   -3254.22668644 Ry
     estimated scf accuracy    <      20.75398821 Ry

     iteration #  4     ecut=    40.00 Ry     beta=0.70
     CG style diagonalization
     ethr =  8.51E-03,  avg # of iterations =  3.4

     total cpu time spent up to now is      105.8 secs

     total energy              =   -3248.31810072 Ry
     Harris-Foulkes estimate   =   -3248.82579849 Ry
     estimated scf accuracy    <       0.84211557 Ry

     iteration #  5     ecut=    40.00 Ry     beta=0.70
     CG style diagonalization
     ethr =  3.45E-04,  avg # of iterations =  4.1

     total cpu time spent up to now is      119.0 secs

     total energy              =   -3248.60105179 Ry
     Harris-Foulkes estimate   =   -3248.67740012 Ry
     estimated scf accuracy    <       0.13709275 Ry

     iteration #  6     ecut=    40.00 Ry     beta=0.70
     CG style diagonalization
     c_bands:  1 eigenvalues not converged
     c_bands:  1 eigenvalues not converged
     ethr =  5.62E-05,  avg # of iterations =  3.7

     total cpu time spent up to now is      132.0 secs

     total energy              =   -3248.63335204 Ry
     Harris-Foulkes estimate   =   -3248.64273565 Ry
     estimated scf accuracy    <       0.02080064 Ry

     iteration #  7     ecut=    40.00 Ry     beta=0.70
     CG style diagonalization
     c_bands:  2 eigenvalues not converged
     ethr =  8.52E-06,  avg # of iterations =  3.5

     total cpu time spent up to now is      143.1 secs

     total energy              =   -3248.63567918 Ry
     Harris-Foulkes estimate   =   -3248.63692296 Ry
     estimated scf accuracy    <       0.00230778 Ry

     iteration #  8     ecut=    40.00 Ry     beta=0.70
     CG style diagonalization
     ethr =  9.46E-07,  avg # of iterations =  3.6

     total cpu time spent up to now is      155.2 secs

     End of self-consistent calculation

          k = 0.0000 0.0000 0.0000 (  3675 PWs)   bands (ev):

   -41.4831 -41.3517 -41.3503 -41.3152 -41.2833 -41.1993 -41.1492 -41.1397
   -26.4086 -26.3996 -26.3884 -26.3752  -6.8396  -6.7890  -6.5925  -6.5384
    -6.4516  -6.3279  -6.2683  -6.2195  -6.1763  -6.1402  -5.9152  -5.9025
    -5.8365  -5.8221  -5.8139  -5.8023  -5.6803  -5.6239  -5.6009  -5.5449
    -5.4615  -5.3509  -5.1836  -5.1124   4.3351   4.4587   4.5018   4.5309
     4.5590   4.5756   4.6306   4.6850   4.8609   4.9051   4.9806   5.0607
    31.3692  31.7116  31.9450  32.0496  32.0563  32.1246  32.4763  32.7084
    32.7709  33.2901  33.4498  33.9014  33.9561  34.1435  34.3745  34.6222
    34.9891  35.0566  35.2072  35.6403  35.9987  36.1854  36.2904  36.3383
    36.3917  36.7037  36.9714  37.2752  37.3892  37.4622  37.4848  37.7391
    37.7468  38.1036  38.1269  38.2224  39.0447  39.0734  39.1940  40.1135
    40.2741  40.6453  40.8943  40.9166  41.7721  42.0240  42.0627  42.7377
    42.9136  43.0955  43.4423  43.9712  44.2502  44.4353  44.5450  44.6417
    45.5723  45.8831  46.0457  46.0562  46.0846  46.6542  46.8725  47.9574
    48.7956  51.0561  51.0681  51.5806  52.6316  53.6168  54.0061  56.1347
    56.1540  56.2928  56.7271  56.9266  57.5526  57.5881  57.6640  57.6994
    58.0759  58.1045  58.3794  58.4082  58.6652  59.0895  59.2595  59.2946
    59.9212  60.0744  60.1306  60.2992  60.5313  60.5331  60.7341  60.9001
    60.9573  61.1916

          k = 0.0000 0.0000 0.1317 (  3675 PWs)   bands (ev):

   -41.4712 -41.3921 -41.3241 -41.3237 -41.2701 -41.2192 -41.1472 -41.1278
   -26.4037 -26.3962 -26.3931 -26.3796  -6.8182  -6.7456  -6.6375  -6.5553
    -6.4848  -6.3853  -6.3574  -6.1524  -6.1364  -6.1328  -5.9655  -5.9299
    -5.8368  -5.8102  -5.8038  -5.7580  -5.6648  -5.6098  -5.5579  -5.5034
    -5.4818  -5.3532  -5.1760  -5.1302   4.3595   4.4299   4.5132   4.5479
     4.5585   4.5740   4.6329   4.6642   4.8647   4.8940   4.9895   5.0387
    31.4739  31.5028  31.7935  31.8341  31.9753  32.2923  32.5759  32.7401
    33.2107  33.3338  33.8699  34.2218  34.3114  34.3455  34.5443  34.5748
    34.6705  34.8304  35.2767  35.5958  35.8878  35.9748  36.0193  36.2011
    36.2958  36.5952  36.7065  36.8327  36.8355  37.2191  37.3239  37.5282
    38.1582  38.1900  38.6505  38.7269  39.1763  39.5059  39.6580  39.6940
    39.9076  39.9371  40.9520  41.0962  41.5642  41.9579  42.1208  42.5872
    42.8050  43.4680  43.4988  44.0756  44.1702  44.4506  44.5360  44.6691
    45.4040  45.5450  45.7875  45.8730  46.0230  46.5713  47.8569  48.2798
    50.4271  50.5417  51.3352  51.6484  52.5315  54.0140  54.2052  55.3058
    55.6084  56.3317  56.5586  56.8433  56.8575  56.9062  57.4747  57.6101
    57.9293  58.1842  58.2535  58.6014  58.7599  58.9186  59.1609  59.2194
    59.3427  59.6810  60.2140  60.3086  60.4909  60.9596  61.0927  61.1813
    61.5817  61.8365

          k = 0.0000 0.0000-0.2634 (  3690 PWs)   bands (ev):

   -41.4502 -41.4502 -41.3223 -41.3222 -41.2423 -41.2423 -41.1426 -41.1426
   -26.4016 -26.4016 -26.3887 -26.3887  -6.7541  -6.7541  -6.6346  -6.6346
    -6.4920  -6.4920  -6.2734  -6.2734  -6.0494  -6.0494  -5.9964  -5.9964
    -5.8205  -5.8205  -5.7730  -5.7730  -5.5974  -5.5974  -5.5917  -5.5917
    -5.4037  -5.4037  -5.1606  -5.1606   4.3981   4.3981   4.5268   4.5268
     4.5936   4.5936   4.6107   4.6107   4.8679   4.8679   5.0053   5.0053
    31.5191  31.5191  31.5223  31.5223  32.1834  32.1834  33.1914  33.1914
    33.4055  33.4055  33.8243  33.8243  34.6193  34.6193  34.6581  34.6581
    34.9395  34.9395  35.3012  35.3012  35.5503  35.5503  35.8746  35.8746
    36.0352  36.0352  36.9092  36.9092  37.2231  37.2231  37.3701  37.3701
    37.9136  37.9136  38.7158  38.7158  39.2727  39.2727  39.8348  39.8348
    40.4956  40.4956  40.6156  40.6156  41.3139  41.3139  42.3113  42.3113
    43.7857  43.7857  43.9054  43.9054  43.9126  43.9126  44.7153  44.7153
    45.0037  45.0037  45.6549  45.6549  46.3252  46.3252  49.2439  49.2439
    50.6599  50.6599  51.6352  51.6352  53.0871  53.0871  54.1505  54.1505
    56.0446  56.0446  56.4767  56.4767  57.1775  57.1775  57.2152  57.2152
    57.5718  57.5718  58.2663  58.2663  58.6795  58.6795  59.2498  59.2498
    60.2201  60.2200  60.2634  60.2634  60.4660  60.4661  61.0511  61.0510
    61.6976  61.6990

          k = 0.0000 0.2533 0.0000 (  3664 PWs)   bands (ev):

   -41.4385 -41.3722 -41.3240 -41.3151 -41.2603 -41.1917 -41.1848 -41.1546
   -26.4120 -26.4105 -26.3770 -26.3757  -6.6470  -6.6162  -6.4386  -6.3790
    -6.3628  -6.3451  -6.3100  -6.2895  -6.1934  -6.1413  -6.0606  -5.9522
    -5.9237  -5.8287  -5.7397  -5.6976  -5.6195  -5.5784  -5.5730  -5.5470
    -5.4773  -5.3871  -5.3832  -5.2900   4.3790   4.4714   4.4815   4.4868
     4.5307   4.5734   4.6077   4.6207   4.7862   4.8120   4.9483   4.9888
    32.0274  32.1279  32.4507  32.5153  32.5240  32.6490  32.9831  33.1295
    33.1943  33.2846  33.6574  33.9198  34.2179  34.2711  34.3015  34.8432
    34.8712  34.8987  35.2073  35.2582  35.4746  35.8621  36.1903  36.4500
    36.5466  36.7650  36.9068  36.9576  36.9841  37.5454  37.6616  37.7213
    37.9532  37.9766  38.6059  38.6670  39.0202  39.1475  39.2783  40.1162
    40.2613  40.5788  40.7606  41.0164  41.5216  41.8196  42.0697  42.1970
    42.3047  43.0008  43.1241  43.7022  43.8756  44.0067  44.3279  44.4864
    44.6338  44.7210  44.8087  45.2971  45.3743  46.1442  46.5974  46.6773
    47.1827  47.9172  52.8018  53.8957  54.2170  54.7687  55.8849  55.8922
    56.5630  56.5675  56.7916  56.9969  57.6217  57.8563  58.1482  58.2114
    58.3007  58.5344  58.5736  58.5846  58.7213  58.9169  59.1508  59.1530
    59.3303  59.5880  59.7233  60.1048  60.2311  60.2619  60.7927  61.2262
    61.3585  61.9427

          k = 0.0000 0.2533 0.1317 (  3669 PWs)   bands (ev):

   -41.4320 -41.3817 -41.3412 -41.3178 -41.2444 -41.2027 -41.1777 -41.1629
   -26.4136 -26.4095 -26.3796 -26.3775  -6.6389  -6.6161  -6.5189  -6.4278
    -6.4253  -6.3299  -6.2610  -6.2510  -6.1837  -6.1228  -6.0797  -5.9579
    -5.8917  -5.7956  -5.7300  -5.7192  -5.6641  -5.6269  -5.5756  -5.5079
    -5.4620  -5.3914  -5.3453  -5.2972   4.3899   4.4585   4.4811   4.4937
     4.5464   4.5640   4.5855   4.6176   4.7787   4.7926   4.9525   4.9877
    31.9391  32.0418  32.1198  32.4376  32.5200  32.9128  33.0743  33.1345
    33.5333  33.5372  33.9159  34.0301  34.1018  34.2335  34.3759  34.8142
    34.8894  35.1563  35.2403  35.3874  35.6770  35.8039  36.0698  36.1373
    36.3252  36.4697  36.8890  36.9492  37.0293  37.4249  37.6056  37.8736
    38.0442  38.0630  38.0888  38.7889  39.0034  39.1361  39.2531  39.8370
    40.2058  40.3327  40.5601  40.8332  41.2839  41.7605  42.2576  42.6003
    42.7001  42.8717  43.0752  43.5087  43.6329  43.8781  44.2212  44.6246
    44.6918  44.8405  44.8798  45.2186  45.3532  45.9050  46.2656  46.6122
    48.3063  49.4901  53.3016  53.5696  54.0628  54.5201  55.3222  55.7034
    56.0006  56.3983  56.7417  56.7854  57.3544  57.8522  57.9710  58.1852
    58.3496  58.4056  58.5659  58.9110  58.9382  59.0509  59.0583  59.2131
    59.3740  59.9970  60.0296  60.3085  60.4436  60.7163  60.9889  61.2555
    61.4460  61.5248

          k = 0.0000 0.2533-0.2634 (  3666 PWs)   bands (ev):

   -41.4081 -41.4081 -41.3349 -41.3349 -41.2132 -41.2132 -41.1707 -41.1707
   -26.4105 -26.4105 -26.3792 -26.3792  -6.6129  -6.6129  -6.5286  -6.5286
    -6.3845  -6.3845  -6.2148  -6.2148  -6.1708  -6.1708  -6.0130  -6.0130
    -5.7761  -5.7761  -5.7445  -5.7445  -5.6778  -5.6778  -5.5544  -5.5544
    -5.4105  -5.4105  -5.3065  -5.3065   4.4232   4.4232   4.5029   4.5029
     4.5575   4.5575   4.5830   4.5830   4.7786   4.7786   4.9735   4.9735
    31.8543  31.8543  32.1343  32.1343  32.8558  32.8558  33.4671  33.4671
    33.4840  33.4840  34.1174  34.1174  34.1453  34.1453  34.8106  34.8106
    35.0566  35.0566  35.3497  35.3497  35.6085  35.6085  36.0746  36.0746
    36.1262  36.1262  36.9144  36.9144  37.3099  37.3099  37.4948  37.4948
    38.0408  38.0408  38.5913  38.5913  39.0194  39.0194  39.4271  39.4271
    40.0088  40.0088  40.4655  40.4655  41.5303  41.5303  42.4678  42.4678
    43.0104  43.0104  43.4330  43.4330  43.4529  43.4529  44.2877  44.2877
    44.7881  44.7881  45.4032  45.4032  45.5275  45.5275  46.1765  46.1765
    50.6153  50.6153  52.5399  52.5399  54.5478  54.5478  55.0200  55.0200
    55.8024  55.8024  57.1255  57.1255  57.1831  57.1831  57.7879  57.7879
    58.5175  58.5174  59.0387  59.0386  59.1754  59.1755  59.4734  59.4731
    59.8669  59.8667  59.8807  59.8808  60.4453  60.4451  61.6510  61.6511
    61.7254  61.7255

          k =-0.5000 0.0000 0.0000 (  3722 PWs)   bands (ev):

   -41.3811 -41.3811 -41.3455 -41.3455 -41.3003 -41.3003 -41.1669 -41.1669
   -26.4263 -26.4263 -26.4105 -26.4105  -6.9421  -6.9421  -6.5869  -6.5869
    -6.5658  -6.5658  -6.3790  -6.3790  -6.2097  -6.2097  -5.9392  -5.9392
    -5.8014  -5.8014  -5.7950  -5.7950  -5.5017  -5.5017  -5.4359  -5.4359
    -5.3520  -5.3520  -5.1827  -5.1827   4.3393   4.3393   4.4977   4.4977
     4.7098   4.7098   4.7416   4.7416   4.9463   4.9463   4.9511   4.9511
    32.0435  32.0435  32.4889  32.4889  33.2068  33.2068  33.3406  33.3406
    33.5714  33.5714  33.8560  33.8560  34.1391  34.1391  34.5337  34.5337
    34.5895  34.5895  34.8378  34.8378  35.2076  35.2076  35.2575  35.2575
    36.0438  36.0438  36.5889  36.5889  36.8482  36.8482  37.4575  37.4575
    37.5600  37.5600  38.8938  38.8938  39.9900  39.9900  40.3186  40.3186
    40.4016  40.4016  41.5492  41.5492  41.6298  41.6298  42.3896  42.3896
    42.8028  42.8028  43.4048  43.4048  43.5475  43.5475  44.9622  44.9622
    45.0224  45.0224  45.5144  45.5144  46.3716  46.3716  47.1657  47.1657
    47.5588  47.5588  48.4822  48.4822  53.3479  53.3479  53.9725  53.9725
    55.5876  55.5876  55.9505  55.9505  56.2951  56.2951  57.6607  57.6607
    57.8999  57.8999  58.8300  58.8301  58.9670  58.9671  60.1158  60.1159
    60.5108  60.5108  60.8341  60.8344  61.3228  61.3229  61.8977  61.8977
    62.6494  62.6500

          k =-0.5000 0.0000 0.1317 (  3710 PWs)   bands (ev):

   -41.3806 -41.3806 -41.3378 -41.3378 -41.2925 -41.2925 -41.1655 -41.1655
   -26.4251 -26.4251 -26.4080 -26.4080  -6.9197  -6.9197  -6.7248  -6.7248
    -6.4691  -6.4691  -6.3601  -6.3601  -6.1080  -6.1080  -5.9701  -5.9701
    -5.9397  -5.9397  -5.7095  -5.7095  -5.4961  -5.4961  -5.4084  -5.4084
    -5.3508  -5.3508  -5.1851  -5.1851   4.3426   4.3426   4.5200   4.5200
     4.7067   4.7067   4.7307   4.7307   4.9445   4.9445   4.9542   4.9542
    32.1712  32.1712  32.3652  32.3652  33.1047  33.1047  33.2562  33.2562
    33.7573  33.7573  33.9692  33.9692  34.1327  34.1327  34.4919  34.4919
    34.6873  34.6873  34.9619  34.9619  35.2666  35.2666  35.4892  35.4892
    35.9496  35.9496  36.2141  36.2141  37.0948  37.0948  37.2759  37.2759
    37.8163  37.8163  38.8827  38.8827  39.1565  39.1565  40.1117  40.1117
    40.2033  40.2033  41.2322  41.2322  42.3009  42.3009  42.4513  42.4513
    42.7886  42.7886  43.3247  43.3247  43.9412  43.9412  44.6115  44.6115
    45.2665  45.2665  45.9779  45.9779  46.2635  46.2635  46.5951  46.5951
    47.8575  47.8575  49.2612  49.2612  52.0460  52.0460  54.2535  54.2535
    56.0578  56.0578  56.5569  56.5569  56.8217  56.8217  57.4975  57.4975
    57.5915  57.5915  58.2101  58.2101  59.1423  59.1422  59.8326  59.8325
    60.2594  60.2594  60.9630  60.9631  61.2770  61.2771  61.9421  61.9422
    62.4215  62.4214

          k =-0.5000 0.0000-0.2634 (  3680 PWs)   bands (ev):

   -41.3606 -41.3606 -41.3340 -41.3340 -41.2785 -41.2785 -41.1643 -41.1643
   -26.4195 -26.4195 -26.4057 -26.4057  -6.9022  -6.9022  -6.7613  -6.7613
    -6.5163  -6.5163  -6.2064  -6.2064  -6.0768  -6.0768  -6.0003  -6.0003
    -5.9777  -5.9777  -5.7183  -5.7183  -5.4831  -5.4831  -5.3705  -5.3705
    -5.3367  -5.3367  -5.1750  -5.1750   4.3534   4.3534   4.5427   4.5427
     4.7103   4.7103   4.7261   4.7261   4.9451   4.9451   4.9581   4.9581
    32.0806  32.0806  32.7537  32.7537  32.8410  32.8410  33.0816  33.0816
    33.6721  33.6721  34.2152  34.2152  34.3157  34.3157  34.6555  34.6555
    34.7852  34.7852  34.9236  34.9236  35.2065  35.2065  35.3267  35.3267
    36.2716  36.2716  36.5269  36.5269  36.6009  36.6009  36.9851  36.9851
    38.2435  38.2435  38.6237  38.6237  38.9567  38.9567  39.5974  39.5974
    40.2440  40.2440  40.9152  40.9152  42.3112  42.3112  42.5687  42.5687
    42.8525  42.8525  43.9015  43.9015  44.0153  44.0153  44.1699  44.1699
    45.7804  45.7804  45.8237  45.8237  46.3098  46.3098  46.3732  46.3732
    48.3753  48.3753  50.3301  50.3301  50.3468  50.3468  54.7816  54.7816
    56.2328  56.2328  56.2830  56.2830  56.9897  56.9897  57.8280  57.8280
    57.9355  57.9355  57.9902  57.9902  59.1930  59.1931  59.5557  59.5557
    59.9203  59.9204  60.7368  60.7368  61.3052  61.3056  62.4210  62.4214
    62.4420  62.4424

          k =-0.5000 0.2533 0.0000 (  3686 PWs)   bands (ev):

   -41.3514 -41.3514 -41.3433 -41.3433 -41.2611 -41.2611 -41.1949 -41.1949
   -26.4225 -26.4225 -26.4121 -26.4121  -6.7183  -6.7183  -6.5510  -6.5510
    -6.5225  -6.5225  -6.2726  -6.2726  -6.1114  -6.1114  -5.9890  -5.9890
    -5.9183  -5.9183  -5.7683  -5.7683  -5.4909  -5.4909  -5.4776  -5.4776
    -5.3772  -5.3772  -5.3208  -5.3208   4.3724   4.3724   4.4526   4.4526
     4.7089   4.7089   4.7244   4.7244   4.8904   4.8904   4.8927   4.8927
    32.7109  32.7109  32.9579  32.9579  33.3038  33.3038  33.4699  33.4699
    33.8678  33.8678  33.8833  33.8833  34.5176  34.5176  34.7504  34.7504
    35.0432  35.0432  35.2485  35.2485  35.4011  35.4011  35.5887  35.5887
    35.9868  35.9868  36.0433  36.0433  36.9835  36.9835  37.3908  37.3908
    37.7714  37.7714  38.4255  38.4255  39.0213  39.0213  39.7032  39.7032
    40.0474  40.0474  41.3644  41.3644  41.8097  41.8097  41.8588  41.8588
    42.8147  42.8147  43.2017  43.2017  43.4203  43.4203  44.2618  44.2618
    44.6333  44.6333  44.6576  44.6576  45.0197  45.0197  46.7220  46.7220
    49.1719  49.1719  49.6114  49.6114  51.1934  51.1934  52.2780  52.2780
    55.7267  55.7267  56.5712  56.5712  57.9131  57.9131  58.2405  58.2405
    58.6172  58.6172  59.1950  59.1950  59.5974  59.5975  60.4684  60.4686
    60.7301  60.7305  61.1065  61.1068  61.6960  61.6962  62.0285  62.0287
    62.5290  62.5292

          k =-0.5000 0.2533 0.1317 (  3692 PWs)   bands (ev):

   -41.3597 -41.3597 -41.3430 -41.3430 -41.2610 -41.2610 -41.1943 -41.1943
   -26.4203 -26.4203 -26.4157 -26.4157  -6.7413  -6.7413  -6.5649  -6.5649
    -6.4587  -6.4588  -6.3437  -6.3437  -6.1341  -6.1341  -6.0228  -6.0228
    -5.8433  -5.8433  -5.6943  -5.6943  -5.5220  -5.5220  -5.4893  -5.4893
    -5.3906  -5.3906  -5.3288  -5.3288   4.3801   4.3801   4.4623   4.4623
     4.6977   4.6977   4.7116   4.7116   4.8794   4.8794   4.8917   4.8917
    32.6417  32.6417  32.9388  32.9388  33.2881  33.2881  33.6343  33.6343
    33.8251  33.8251  34.1022  34.1022  34.4551  34.4551  34.8022  34.8022
    34.9201  34.9201  35.2601  35.2601  35.3966  35.3966  35.7161  35.7161
    35.8580  35.8580  36.3582  36.3582  37.0513  37.0513  37.2631  37.2631
    37.9469  37.9469  38.2445  38.2445  38.8604  38.8604  39.4905  39.4905
    40.0197  40.0197  40.6212  40.6212  41.8778  41.8778  42.2181  42.2181
    42.7511  42.7511  42.9644  42.9644  43.3085  43.3085  44.1062  44.1062
    44.5973  44.5973  45.0550  45.0550  45.4188  45.4188  47.0399  47.0399
    48.6265  48.6265  50.3767  50.3767  50.5250  50.5250  53.3363  53.3363
    55.8657  55.8657  56.5165  56.5165  57.5660  57.5660  58.2830  58.2830
    58.4841  58.4839  59.1393  59.1392  59.8589  59.8589  60.2860  60.2860
    60.6469  60.6471  61.0646  61.0647  61.3707  61.3708  61.7175  61.7174
    62.1329  62.1329

          k =-0.5000 0.2533-0.2634 (  3704 PWs)   bands (ev):

   -41.3604 -41.3604 -41.3468 -41.3468 -41.2696 -41.2696 -41.1978 -41.1978
   -26.4204 -26.4204 -26.4188 -26.4188  -6.7684  -6.7684  -6.5147  -6.5147
    -6.4668  -6.4668  -6.4014  -6.4014  -6.1948  -6.1948  -6.0193  -6.0193
    -5.7704  -5.7704  -5.6198  -5.6198  -5.5617  -5.5617  -5.5417  -5.5417
    -5.3720  -5.3720  -5.3412  -5.3412   4.3782   4.3782   4.4712   4.4712
     4.6868   4.6868   4.6998   4.6998   4.8747   4.8747   4.8809   4.8809
    32.4723  32.4723  33.1783  33.1783  33.3033  33.3033  33.6721  33.6721
    33.7830  33.7830  34.1563  34.1563  34.4660  34.4660  34.8388  34.8388
    34.9522  34.9522  35.1380  35.1380  35.3457  35.3457  35.8540  35.8540
    36.0630  36.0630  36.6732  36.6732  36.7597  36.7597  37.2326  37.2326
    37.6612  37.6612  38.6067  38.6067  38.7291  38.7291  39.3382  39.3382
    39.9027  39.9027  40.1496  40.1496  41.9405  41.9405  42.0616  42.0616
    42.6946  42.6946  42.7685  42.7685  43.3361  43.3361  43.9020  43.9020
    44.7287  44.7287  45.1984  45.1984  46.3851  46.3851  46.7816  46.7816
    48.8679  48.8679  49.4106  49.4106  51.1668  51.1668  54.8044  54.8044
    55.2671  55.2671  56.9776  56.9776  57.0114  57.0114  58.0033  58.0033
    58.1416  58.1416  59.2829  59.2830  59.8463  59.8464  60.1295  60.1295
    60.3113  60.3114  61.0957  61.0960  61.2698  61.2699  61.6694  61.6689
    62.1639  62.1646

     the Fermi energy is    56.1996 ev

!    total energy              =   -3248.63619944 Ry
     Harris-Foulkes estimate   =   -3248.63627294 Ry
     estimated scf accuracy    <       0.00009078 Ry

     The total energy is the sum of the following terms:

     one-electron contribution =     242.00208743 Ry
     hartree contribution      =     265.04345296 Ry
     xc contribution           =    -311.44071487 Ry
     ewald contribution        =   -3443.88744500 Ry
     smearing contrib. (-TS)   =      -0.35357994 Ry

     convergence has been achieved in   8 iterations

     Forces acting on atoms (Ry/au):

     atom    1 type  1   force =     0.00000000   -0.11326964   -0.07629194
     atom    2 type  1   force =     0.00000000    0.11326964    0.07629194
     atom    3 type  1   force =     0.00000000   -0.11326964    0.07629194
     atom    4 type  1   force =     0.00000000    0.11326964   -0.07629194
     atom    5 type  1   force =     0.00000000    0.12971483   -0.15212312
     atom    6 type  1   force =     0.00000000   -0.12971483    0.15212312
     atom    7 type  1   force =     0.00000000    0.12971483    0.15212312
     atom    8 type  1   force =     0.00000000   -0.12971483   -0.15212312
     atom    9 type  2   force =     0.00000000   -0.20964755    0.02019471
     atom   10 type  2   force =     0.00000000    0.20964755   -0.02019471
     atom   11 type  2   force =     0.00000000   -0.20964755   -0.02019471
     atom   12 type  2   force =     0.00000000    0.20964755    0.02019471

     Total force =     0.641803     Total SCF correction =     0.000000


     entering subroutine stress ...

          total   stress  (Ry/bohr**3)                   (kbar)     P= 7332.33
   0.05211769   0.00000000   0.00000000       7666.78      0.00      0.00
   0.00000000   0.04739282   0.00000000          0.00   6971.72      0.00
   0.00000000   0.00000000   0.05002205          0.00      0.00   7358.50


     number of scf cycles    =   2
     number of bfgs steps    =   1

     enthalpy old            =   -3248.6361960332 Ry
     enthalpy new            =   -3248.6361994365 Ry

     CASE: enthalpy_new < enthalpy_old


     WARNING: unexpected behaviour in update_inverse_hessian
              resetting bfgs history

     small trust_radius: resetting bfgs history

     new trust radius        =       7.6520672162 bohr
     new conv_thr            =       0.0000010000 Ry

     new unit-cell volume =   9764.16153 a.u.^3 (  1446.89944 Ang^3 )

CELL_PARAMETERS (alat=  7.01510508)
   2.302942270   0.000000000   0.000000000
   0.000000000   2.875143723   0.000000000
   0.000000000   0.000000000   4.271592380

ATOMIC_POSITIONS (crystal)
Co       0.750000000   0.814131255   0.430006145
Co       0.250000000   0.185868745   0.569993855
Co       0.750000000   0.314131255   0.069993855
Co       0.250000000   0.685868745   0.930006145
Co       0.250000000   0.551137143   0.270919896
Co       0.750000000   0.448862857   0.729080104
Co       0.250000000   0.051137143   0.229080104
Co       0.750000000   0.948862857   0.770919896
Si       0.250000000   0.180144278   0.895116710
Si       0.750000000   0.819855722   0.104883290
Si       0.250000000   0.680144278   0.604883290
Si       0.750000000   0.319855722   0.395116710



     Writing output data file Prototype-La-oP12-Co2Si.save
     NEW-OLD atomic charge density approx. for the potential
     NEW k-points:
        k(    1) = (   0.0000000   0.0000000   0.0000000), wk =   0.0833333
        k(    2) = (   0.0000000   0.0000000   0.0585262), wk =   0.1666667
        k(    3) = (   0.0000000   0.0000000  -0.1170524), wk =   0.0833333
        k(    4) = (   0.0000000   0.1159362   0.0000000), wk =   0.1666667
        k(    5) = (   0.0000000   0.1159362   0.0585262), wk =   0.3333333
        k(    6) = (   0.0000000   0.1159362  -0.1170524), wk =   0.1666667
        k(    7) = (  -0.2171136   0.0000000   0.0000000), wk =   0.0833333
        k(    8) = (  -0.2171136   0.0000000   0.0585262), wk =   0.1666667
        k(    9) = (  -0.2171136   0.0000000  -0.1170524), wk =   0.0833333
        k(   10) = (  -0.2171136   0.1159362   0.0000000), wk =   0.1666667
        k(   11) = (  -0.2171136   0.1159362   0.0585262), wk =   0.3333333
        k(   12) = (  -0.2171136   0.1159362  -0.1170524), wk =   0.1666667

     total cpu time spent up to now is      159.6 secs

     Self-consistent Calculation

     iteration #  1     ecut=    40.00 Ry     beta=0.70
     CG style diagonalization
     c_bands:  2 eigenvalues not converged
     c_bands:  4 eigenvalues not converged
     c_bands:  2 eigenvalues not converged
     c_bands:  4 eigenvalues not converged
     c_bands:  4 eigenvalues not converged
     c_bands:  3 eigenvalues not converged
     c_bands:  2 eigenvalues not converged
     ethr =  1.00E-06,  avg # of iterations = 38.1

     total cpu time spent up to now is      290.7 secs

     total energy              =   -3648.47289065 Ry
     Harris-Foulkes estimate   =   -3653.45924258 Ry
     estimated scf accuracy    <       6.96107141 Ry

     iteration #  2     ecut=    40.00 Ry     beta=0.70
     CG style diagonalization
     c_bands:  5 eigenvalues not converged
     c_bands:  2 eigenvalues not converged
     c_bands:  4 eigenvalues not converged
     c_bands:  3 eigenvalues not converged
     ethr =  2.85E-03,  avg # of iterations = 16.1

     negative rho (up, down):  0.352E-02 0.000E+00

     total cpu time spent up to now is      347.3 secs

     total energy              =   -3611.00410262 Ry
     Harris-Foulkes estimate   =   -3584.40996646 Ry
     estimated scf accuracy    <      63.53856878 Ry

     iteration #  3     ecut=    40.00 Ry     beta=0.70
     CG style diagonalization
     ethr =  2.85E-03,  avg # of iterations = 17.4

     negative rho (up, down):  0.497E+01 0.000E+00

     total cpu time spent up to now is      409.2 secs

     total energy              =   -3723.77161414 Ry
     Harris-Foulkes estimate   =   -3663.18988199 Ry
     estimated scf accuracy    <      66.24440809 Ry

     iteration #  4     ecut=    40.00 Ry     beta=0.70
     CG style diagonalization
     ethr =  2.85E-03,  avg # of iterations = 18.3

     total cpu time spent up to now is      474.1 secs

     total energy              =   -3770.14039399 Ry
     Harris-Foulkes estimate   =   -3844.46658212 Ry
     estimated scf accuracy    <     134.58747978 Ry

     iteration #  5     ecut=    40.00 Ry     beta=0.70
     CG style diagonalization
     c_bands:  3 eigenvalues not converged
     c_bands:  2 eigenvalues not converged
     c_bands:  1 eigenvalues not converged
     ethr =  2.85E-03,  avg # of iterations = 10.1

     total cpu time spent up to now is      510.7 secs

     total energy              =   -3160.82617567 Ry
     Harris-Foulkes estimate   =   -3159.45039584 Ry
     estimated scf accuracy    <       2.24836363 Ry

     iteration #  6     ecut=    40.00 Ry     beta=0.70
     CG style diagonalization
     ethr =  9.21E-04,  avg # of iterations = 17.1

     total cpu time spent up to now is      572.4 secs

     total energy              =   -3172.36324957 Ry
     Harris-Foulkes estimate   =   -3170.80160424 Ry
     estimated scf accuracy    <       3.53641567 Ry

     iteration #  7     ecut=    40.00 Ry     beta=0.70
     CG style diagonalization
     ethr =  9.21E-04,  avg # of iterations = 17.4

     total cpu time spent up to now is      634.8 secs

     total energy              =   -3181.35987070 Ry
     Harris-Foulkes estimate   =   -3181.25335327 Ry
     estimated scf accuracy    <       6.45881289 Ry

     iteration #  8     ecut=    40.00 Ry     beta=0.70
     CG style diagonalization
     ethr =  9.21E-04,  avg # of iterations = 17.3

     total cpu time spent up to now is      694.0 secs

     total energy              =   -3182.04186515 Ry
     Harris-Foulkes estimate   =   -3181.84208406 Ry
     estimated scf accuracy    <       7.51329717 Ry

     iteration #  9     ecut=    40.00 Ry     beta=0.70
     CG style diagonalization
     ethr =  9.21E-04,  avg # of iterations = 17.3

     total cpu time spent up to now is      749.3 secs

     total energy              =   -3182.17301449 Ry
     Harris-Foulkes estimate   =   -3182.85875047 Ry
     estimated scf accuracy    <      10.28270697 Ry

     iteration # 10     ecut=    40.00 Ry     beta=0.70
     CG style diagonalization
     ethr =  9.21E-04,  avg # of iterations = 17.2

     total cpu time spent up to now is      809.9 secs

     total energy              =   -3178.90624664 Ry
     Harris-Foulkes estimate   =   -3180.10521835 Ry
     estimated scf accuracy    <       6.82355751 Ry

     iteration # 11     ecut=    40.00 Ry     beta=0.70
     CG style diagonalization
     ethr =  9.21E-04,  avg # of iterations = 17.3

     total cpu time spent up to now is      871.1 secs

     total energy              =   -3175.70741799 Ry
     Harris-Foulkes estimate   =   -3174.86480793 Ry
     estimated scf accuracy    <       0.95308106 Ry

     iteration # 12     ecut=    40.00 Ry     beta=0.70
     CG style diagonalization
     ethr =  3.91E-04,  avg # of iterations = 20.7

     total cpu time spent up to now is      944.1 secs

     total energy              =   -3187.63399189 Ry
     Harris-Foulkes estimate   =   -3192.13030376 Ry
     estimated scf accuracy    <       9.32808460 Ry

     iteration # 13     ecut=    40.00 Ry     beta=0.70
     CG style diagonalization
     ethr =  3.91E-04,  avg # of iterations = 20.5

     total cpu time spent up to now is     1014.7 secs

     total energy              =   -3212.69756470 Ry
     Harris-Foulkes estimate   =   -3216.25047458 Ry
     estimated scf accuracy    <      39.70920410 Ry

     iteration # 14     ecut=    40.00 Ry     beta=0.70
     CG style diagonalization
     ethr =  3.91E-04,  avg # of iterations = 21.5

     total cpu time spent up to now is     1086.3 secs

     total energy              =   -3224.21873105 Ry
     Harris-Foulkes estimate   =   -3224.41930758 Ry
     estimated scf accuracy    <      26.56271444 Ry

     iteration # 15     ecut=    40.00 Ry     beta=0.70
     CG style diagonalization
     ethr =  3.91E-04,  avg # of iterations = 21.3

     total cpu time spent up to now is     1154.6 secs

     total energy              =   -3230.62175189 Ry
     Harris-Foulkes estimate   =   -3224.98138383 Ry
     estimated scf accuracy    <      74.04363837 Ry

     iteration # 16     ecut=    40.00 Ry     beta=0.70
     CG style diagonalization
     ethr =  3.91E-04,  avg # of iterations = 21.0

     total cpu time spent up to now is     1226.9 secs

     total energy              =   -3224.29369853 Ry
     Harris-Foulkes estimate   =   -3215.58436000 Ry
     estimated scf accuracy    <      22.76044882 Ry

     iteration # 17     ecut=    40.00 Ry     beta=0.70
     CG style diagonalization
     ethr =  3.91E-04,  avg # of iterations = 20.5

     total cpu time spent up to now is     1298.6 secs

     total energy              =   -3200.86230058 Ry
     Harris-Foulkes estimate   =   -3192.45659050 Ry
     estimated scf accuracy    <      32.01339362 Ry

     iteration # 18     ecut=    40.00 Ry     beta=0.70
     CG style diagonalization
     ethr =  3.91E-04,  avg # of iterations = 20.0

     total cpu time spent up to now is     1368.3 secs

     total energy              =   -3182.77746800 Ry
     Harris-Foulkes estimate   =   -3174.44392574 Ry
     estimated scf accuracy    <      42.09582928 Ry

     iteration # 19     ecut=    40.00 Ry     beta=0.70
     CG style diagonalization
     ethr =  3.91E-04,  avg # of iterations = 19.7

     total cpu time spent up to now is     1436.9 secs

     total energy              =   -3138.45073221 Ry
     Harris-Foulkes estimate   =   -3159.70368958 Ry
     estimated scf accuracy    <      51.43493939 Ry

     iteration # 20     ecut=    40.00 Ry     beta=0.70
     CG style diagonalization
     ethr =  3.91E-04,  avg # of iterations = 20.9

     total cpu time spent up to now is     1499.3 secs

     total energy              =   -3200.06772773 Ry
     Harris-Foulkes estimate   =   -3203.39145729 Ry
     estimated scf accuracy    <      26.81868069 Ry

     iteration # 21     ecut=    40.00 Ry     beta=0.70
     CG style diagonalization
     ethr =  3.91E-04,  avg # of iterations = 20.9

     total cpu time spent up to now is     1573.4 secs

     total energy              =   -3207.17707831 Ry
     Harris-Foulkes estimate   =   -3212.69845214 Ry
     estimated scf accuracy    <      22.61919383 Ry

     iteration # 22     ecut=    40.00 Ry     beta=0.70
     CG style diagonalization
     ethr =  3.91E-04,  avg # of iterations = 21.1

     total cpu time spent up to now is     1647.9 secs

     total energy              =   -3221.23188804 Ry
     Harris-Foulkes estimate   =   -3231.09206185 Ry
     estimated scf accuracy    <      17.16604102 Ry

     iteration # 23     ecut=    40.00 Ry     beta=0.70
     CG style diagonalization
     ethr =  3.91E-04,  avg # of iterations = 21.5

     total cpu time spent up to now is     1721.6 secs

     total energy              =   -3257.56516732 Ry
     Harris-Foulkes estimate   =   -3279.05829172 Ry
     estimated scf accuracy    <      45.85458848 Ry

     iteration # 24     ecut=    40.00 Ry     beta=0.70
     CG style diagonalization
     ethr =  3.91E-04,  avg # of iterations = 22.4

     total cpu time spent up to now is     1797.9 secs

     total energy              =   -3353.00303205 Ry
     Harris-Foulkes estimate   =   -3347.07540814 Ry
     estimated scf accuracy    <       0.14699103 Ry

     iteration # 25     ecut=    40.00 Ry     beta=0.70
     CG style diagonalization
     c_bands:  1 eigenvalues not converged
     c_bands:  2 eigenvalues not converged
     ethr =  6.02E-05,  avg # of iterations = 26.8

     total cpu time spent up to now is     1885.1 secs

     total energy              =   -3449.86797864 Ry
     Harris-Foulkes estimate   =   -3450.09044083 Ry
     estimated scf accuracy    <       7.80003212 Ry

     iteration # 26     ecut=    40.00 Ry     beta=0.70
     CG style diagonalization
     c_bands:  5 eigenvalues not converged
     c_bands:  2 eigenvalues not converged
     c_bands:  1 eigenvalues not converged
     c_bands:  1 eigenvalues not converged
     c_bands:  1 eigenvalues not converged
     ethr =  6.02E-05,  avg # of iterations = 26.7

     total cpu time spent up to now is     1975.5 secs

     total energy              =   -3446.05651464 Ry
     Harris-Foulkes estimate   =   -3448.31867868 Ry
     estimated scf accuracy    <       8.30724841 Ry

     iteration # 27     ecut=    40.00 Ry     beta=0.70
     CG style diagonalization
     c_bands:  2 eigenvalues not converged
     c_bands:  2 eigenvalues not converged
     c_bands:  2 eigenvalues not converged
     ethr =  6.02E-05,  avg # of iterations = 26.5

     total cpu time spent up to now is     2066.9 secs

     total energy              =   -3429.64774278 Ry
     Harris-Foulkes estimate   =   -3429.53610567 Ry
     estimated scf accuracy    <       5.72242895 Ry

     iteration # 28     ecut=    40.00 Ry     beta=0.70
     CG style diagonalization
     c_bands:  3 eigenvalues not converged
     c_bands:  1 eigenvalues not converged
     c_bands:  1 eigenvalues not converged
     ethr =  6.02E-05,  avg # of iterations = 26.6
