
     Program PWSCF v.5.0.2 starts on 22Mar2018 at 12:11:35 

     This program is part of the open-source Quantum ESPRESSO suite
     for quantum simulation of materials; please cite
         "P. Giannozzi et al., J. Phys.:Condens. Matter 21 395502 (2009);
          URL http://www.quantum-espresso.org", 
     in publications or presentations arising from this work. More details at
     http://www.quantum-espresso.org/quote.php

     Parallel version (MPI), running on     4 processors
     R & G space division:  proc/nbgrp/npool/nimage =       4

     Current dimensions of program PWSCF are:
     Max number of different atomic species (ntypx) = 10
     Max number of k-points (npk) =  40000
     Max angular momentum in pseudopotentials (lmaxx) =  3
     Waiting for input...
     Reading input from standard input

     Subspace diagonalization in iterative solution of the eigenvalue problem:
     a serial algorithm will be used

 
     Parallelization info
     --------------------
     sticks:   dense  smooth     PW     G-vecs:    dense   smooth      PW
     Min         164     164     48                 3132     3132     524
     Max         165     165     49                 3135     3135     527
     Sum         657     657    193                12533    12533    2103
 


     bravais-lattice index     =            0
     lattice parameter (alat)  =       7.1317  a.u.
     unit-cell volume          =     362.7211 (a.u.)^3
     number of atoms/cell      =            4
     number of atomic types    =            2
     number of electrons       =        86.00
     number of Kohn-Sham states=           52
     kinetic-energy cutoff     =      40.0000  Ry
     charge density cutoff     =     160.0000  Ry
     convergence threshold     =      1.0E-04
     mixing beta               =       0.7000
     number of iterations used =            8  plain     mixing
     Exchange-correlation      = SLA-PZ-NOGX-NOGC ( 1 1 0 0 0)
     EXX-fraction              =        0.00
     nstep                     =           50


     celldm(1)=   7.131665  celldm(2)=   0.000000  celldm(3)=   0.000000
     celldm(4)=   0.000000  celldm(5)=   0.000000  celldm(6)=   0.000000

     crystal axes: (cart. coord. in units of alat)
               a(1) = (   1.000000   0.000000   0.000000 )  
               a(2) = (   0.000000   1.000000   0.000000 )  
               a(3) = (   0.000000   0.000000   1.000000 )  

     reciprocal axes: (cart. coord. in units 2 pi/alat)
               b(1) = (  1.000000  0.000000  0.000000 )  
               b(2) = (  0.000000  1.000000  0.000000 )  
               b(3) = (  0.000000  0.000000  1.000000 )  


     PseudoPot. # 1 for Yb read from file:
     /home/jld5415/pp.La/Yb.UPF
     MD5 check sum: 3e859b81cc28c53ec6aa3a2e888efcdf
     Pseudo is Norm-conserving, Zval = 24.0
     Generated in analytical, separable form
     Using radial grid of 1269 points,  6 beta functions with: 
                l(1) =   0
                l(2) =   0
                l(3) =   1
                l(4) =   1
                l(5) =   2
                l(6) =   3

     PseudoPot. # 2 for Nd read from file:
     /home/jld5415/pp.La/Nd.UPF
     MD5 check sum: c66c5b6abe7b5840ced9b1e244e3bed6
     Pseudo is Norm-conserving, Zval = 14.0
     Generated in analytical, separable form
     Using radial grid of 1257 points,  6 beta functions with: 
                l(1) =   0
                l(2) =   0
                l(3) =   1
                l(4) =   1
                l(5) =   2
                l(6) =   3

     atomic species   valence    mass     pseudopotential
        Cu            24.00    63.54600     Yb( 1.00)
        Au            14.00   196.96600     Nd( 1.00)

     48 Sym. Ops., with inversion, found



   Cartesian axes

     site n.     atom                  positions (alat units)
         1           Cu  tau(   1) = (   0.0000000   0.5000000   0.5000000  )
         2           Cu  tau(   2) = (   0.5000000   0.5000000   0.0000000  )
         3           Cu  tau(   3) = (   0.5000000   0.0000000   0.5000000  )
         4           Au  tau(   4) = (   0.0000000   0.0000000   0.0000000  )

     number of k points=   100  gaussian smearing, width (Ry)=  0.1000

     Number of k-points >= 100: set verbosity='high' to print them.

     Dense  grid:    12533 G-vectors     FFT dimensions: (  30,  30,  30)

     Largest allocated arrays     est. size (Mb)     dimensions
        Kohn-Sham Wavefunctions         0.32 Mb     (    400,   52)
        NL pseudopotentials             0.49 Mb     (    400,   80)
        Each V/rho on FFT grid          0.11 Mb     (   7200)
        Each G-vector array             0.02 Mb     (   3134)
        G-vector shells                 0.02 Mb     (   3134)
     Largest temporary arrays     est. size (Mb)     dimensions
        Each subspace H/S matrix        0.04 Mb     (  52,  52)
        Each <psi_i|beta_j> matrix      0.06 Mb     (     80,   52)
        Arrays for rho mixing           0.88 Mb     (   7200,   8)

     Initial potential from superposition of free atoms

     Starting from uniform charge
     Starting wfc are    0 randomized atomic wfcs

     total cpu time spent up to now is        2.1 secs

     Self-consistent Calculation

     iteration #  1     ecut=    40.00 Ry     beta=0.70
     CG style diagonalization
     c_bands:  5 eigenvalues not converged
     c_bands:  3 eigenvalues not converged
     c_bands:  2 eigenvalues not converged
     c_bands:  3 eigenvalues not converged
     c_bands:  1 eigenvalues not converged
     c_bands:  3 eigenvalues not converged
     c_bands:  4 eigenvalues not converged
     c_bands:  4 eigenvalues not converged
     c_bands:  2 eigenvalues not converged
     c_bands:  2 eigenvalues not converged
     c_bands:  2 eigenvalues not converged
     c_bands:  4 eigenvalues not converged
     c_bands:  3 eigenvalues not converged
     c_bands:  3 eigenvalues not converged
     c_bands:  3 eigenvalues not converged
     c_bands:  2 eigenvalues not converged
     c_bands:  4 eigenvalues not converged
     c_bands:  2 eigenvalues not converged
     c_bands:  4 eigenvalues not converged
     c_bands:  3 eigenvalues not converged
     c_bands:  2 eigenvalues not converged
     c_bands:  3 eigenvalues not converged
     c_bands:  4 eigenvalues not converged
     c_bands:  5 eigenvalues not converged
     c_bands:  4 eigenvalues not converged
     c_bands:  5 eigenvalues not converged
     c_bands:  4 eigenvalues not converged
     c_bands:  2 eigenvalues not converged
     c_bands:  4 eigenvalues not converged
     c_bands:  4 eigenvalues not converged
     c_bands:  3 eigenvalues not converged
     c_bands:  4 eigenvalues not converged
     c_bands:  4 eigenvalues not converged
     c_bands:  3 eigenvalues not converged
     c_bands:  2 eigenvalues not converged
     c_bands:  5 eigenvalues not converged
     c_bands:  4 eigenvalues not converged
     c_bands:  5 eigenvalues not converged
     c_bands:  2 eigenvalues not converged
     c_bands:  3 eigenvalues not converged
     c_bands:  3 eigenvalues not converged
     c_bands:  4 eigenvalues not converged
     c_bands:  4 eigenvalues not converged
     c_bands:  4 eigenvalues not converged
     c_bands:  2 eigenvalues not converged
     c_bands:  3 eigenvalues not converged
     c_bands:  3 eigenvalues not converged
     c_bands:  4 eigenvalues not converged
     c_bands:  3 eigenvalues not converged
     c_bands:  4 eigenvalues not converged
     c_bands:  2 eigenvalues not converged
     c_bands:  2 eigenvalues not converged
     c_bands:  3 eigenvalues not converged
     c_bands:  3 eigenvalues not converged
     c_bands:  1 eigenvalues not converged
     c_bands:  2 eigenvalues not converged
     c_bands:  2 eigenvalues not converged
     c_bands:  4 eigenvalues not converged
     c_bands:  5 eigenvalues not converged
     c_bands:  2 eigenvalues not converged
     c_bands:  4 eigenvalues not converged
     c_bands:  5 eigenvalues not converged
     c_bands:  5 eigenvalues not converged
     c_bands:  3 eigenvalues not converged
     c_bands:  3 eigenvalues not converged
     c_bands:  5 eigenvalues not converged
     c_bands:  4 eigenvalues not converged
     c_bands:  5 eigenvalues not converged
     c_bands:  3 eigenvalues not converged
     c_bands:  3 eigenvalues not converged
     c_bands:  2 eigenvalues not converged
     c_bands:  3 eigenvalues not converged
     c_bands:  3 eigenvalues not converged
     c_bands:  4 eigenvalues not converged
     c_bands:  3 eigenvalues not converged
     c_bands:  4 eigenvalues not converged
     c_bands:  1 eigenvalues not converged
     c_bands:  1 eigenvalues not converged
     c_bands:  1 eigenvalues not converged
     c_bands:  2 eigenvalues not converged
     c_bands:  3 eigenvalues not converged
     c_bands:  4 eigenvalues not converged
     c_bands:  3 eigenvalues not converged
     c_bands:  3 eigenvalues not converged
     c_bands:  4 eigenvalues not converged
     c_bands:  2 eigenvalues not converged
     ethr =  1.00E-02,  avg # of iterations = 14.2

     total cpu time spent up to now is       30.2 secs

     total energy              =   -1025.36482510 Ry
     Harris-Foulkes estimate   =   -1687.19231993 Ry
     estimated scf accuracy    <     809.93158397 Ry

     iteration #  2     ecut=    40.00 Ry     beta=0.70
     CG style diagonalization
     c_bands:  5 eigenvalues not converged
     c_bands:  1 eigenvalues not converged
     c_bands:  1 eigenvalues not converged
     c_bands:  3 eigenvalues not converged
     c_bands:  5 eigenvalues not converged
     c_bands:  1 eigenvalues not converged
     c_bands:  1 eigenvalues not converged
     c_bands:  1 eigenvalues not converged
     c_bands:  2 eigenvalues not converged
     c_bands:  2 eigenvalues not converged
     c_bands:  1 eigenvalues not converged
     c_bands:  1 eigenvalues not converged
     c_bands:  1 eigenvalues not converged
     c_bands:  4 eigenvalues not converged
     c_bands:  3 eigenvalues not converged
     c_bands:  2 eigenvalues not converged
     c_bands:  2 eigenvalues not converged
     c_bands:  2 eigenvalues not converged
     c_bands:  1 eigenvalues not converged
     c_bands:  1 eigenvalues not converged
     c_bands:  2 eigenvalues not converged
     c_bands:  1 eigenvalues not converged
     c_bands:  1 eigenvalues not converged
     c_bands:  1 eigenvalues not converged
     c_bands:  1 eigenvalues not converged
     c_bands:  1 eigenvalues not converged
     c_bands:  1 eigenvalues not converged
     c_bands:  1 eigenvalues not converged
     c_bands:  1 eigenvalues not converged
     c_bands:  1 eigenvalues not converged
     c_bands:  2 eigenvalues not converged
     c_bands:  2 eigenvalues not converged
     c_bands:  1 eigenvalues not converged
     c_bands:  1 eigenvalues not converged
     c_bands:  1 eigenvalues not converged
     c_bands:  1 eigenvalues not converged
     c_bands:  2 eigenvalues not converged
     c_bands:  1 eigenvalues not converged
     c_bands:  2 eigenvalues not converged
     c_bands:  1 eigenvalues not converged
     c_bands:  1 eigenvalues not converged
     c_bands:  1 eigenvalues not converged
     c_bands:  1 eigenvalues not converged
     c_bands:  3 eigenvalues not converged
     c_bands:  2 eigenvalues not converged
     c_bands:  1 eigenvalues not converged
     c_bands:  1 eigenvalues not converged
     c_bands:  1 eigenvalues not converged
     c_bands:  1 eigenvalues not converged
     ethr =  1.00E-02,  avg # of iterations = 12.8

     total cpu time spent up to now is       54.3 secs

     total energy              =   -1112.50898732 Ry
     Harris-Foulkes estimate   =   -1513.40712878 Ry
     estimated scf accuracy    <     726.04100027 Ry

     iteration #  3     ecut=    40.00 Ry     beta=0.70
     CG style diagonalization
     c_bands:  1 eigenvalues not converged
     c_bands:  1 eigenvalues not converged
     c_bands:  1 eigenvalues not converged
     c_bands:  2 eigenvalues not converged
     c_bands:  1 eigenvalues not converged
     c_bands:  1 eigenvalues not converged
     c_bands:  1 eigenvalues not converged
     c_bands:  1 eigenvalues not converged
     c_bands:  1 eigenvalues not converged
     c_bands:  1 eigenvalues not converged
     c_bands:  1 eigenvalues not converged
     c_bands:  1 eigenvalues not converged
     c_bands:  2 eigenvalues not converged
     c_bands:  1 eigenvalues not converged
     c_bands:  1 eigenvalues not converged
     c_bands:  1 eigenvalues not converged
     c_bands:  2 eigenvalues not converged
     c_bands:  2 eigenvalues not converged
     c_bands:  1 eigenvalues not converged
     c_bands:  1 eigenvalues not converged
     c_bands:  1 eigenvalues not converged
     c_bands:  1 eigenvalues not converged
     c_bands:  2 eigenvalues not converged
     c_bands:  1 eigenvalues not converged
     c_bands:  1 eigenvalues not converged
     c_bands:  1 eigenvalues not converged
     c_bands:  1 eigenvalues not converged
     c_bands:  1 eigenvalues not converged
     c_bands:  1 eigenvalues not converged
     c_bands:  2 eigenvalues not converged
     c_bands:  2 eigenvalues not converged
     c_bands:  1 eigenvalues not converged
     ethr =  1.00E-02,  avg # of iterations = 11.0

     total cpu time spent up to now is       75.1 secs

     total energy              =   -1323.64598410 Ry
     Harris-Foulkes estimate   =   -1369.99899815 Ry
     estimated scf accuracy    <     106.92971855 Ry

     iteration #  4     ecut=    40.00 Ry     beta=0.70
     CG style diagonalization
     ethr =  1.00E-02,  avg # of iterations =  5.2

     total cpu time spent up to now is       85.0 secs

     total energy              =   -1336.25837852 Ry
     Harris-Foulkes estimate   =   -1338.48233214 Ry
     estimated scf accuracy    <       6.38777407 Ry

     iteration #  5     ecut=    40.00 Ry     beta=0.70
     CG style diagonalization
     ethr =  7.43E-03,  avg # of iterations =  3.1

     total cpu time spent up to now is       90.8 secs

     total energy              =   -1335.37840537 Ry
     Harris-Foulkes estimate   =   -1336.70547735 Ry
     estimated scf accuracy    <       2.33263187 Ry

     iteration #  6     ecut=    40.00 Ry     beta=0.70
     CG style diagonalization
     ethr =  2.71E-03,  avg # of iterations =  4.1

     total cpu time spent up to now is       98.5 secs

     total energy              =   -1336.08747925 Ry
     Harris-Foulkes estimate   =   -1336.23746645 Ry
     estimated scf accuracy    <       0.24677362 Ry

     iteration #  7     ecut=    40.00 Ry     beta=0.70
     CG style diagonalization
     c_bands:  1 eigenvalues not converged
     c_bands:  1 eigenvalues not converged
     c_bands:  2 eigenvalues not converged
     c_bands:  1 eigenvalues not converged
     c_bands:  1 eigenvalues not converged
     c_bands:  1 eigenvalues not converged
     c_bands:  1 eigenvalues not converged
     c_bands:  1 eigenvalues not converged
     c_bands:  1 eigenvalues not converged
     c_bands:  1 eigenvalues not converged
     c_bands:  1 eigenvalues not converged
     c_bands:  1 eigenvalues not converged
     c_bands:  2 eigenvalues not converged
     c_bands:  1 eigenvalues not converged
     c_bands:  1 eigenvalues not converged
     c_bands:  1 eigenvalues not converged
     c_bands:  1 eigenvalues not converged
     c_bands:  2 eigenvalues not converged
     ethr =  2.87E-04,  avg # of iterations =  4.1

     total cpu time spent up to now is      106.4 secs

     total energy              =   -1336.17008239 Ry
     Harris-Foulkes estimate   =   -1336.18211521 Ry
     estimated scf accuracy    <       0.02733826 Ry

     iteration #  8     ecut=    40.00 Ry     beta=0.70
     CG style diagonalization
     c_bands:  1 eigenvalues not converged
     c_bands:  1 eigenvalues not converged
     c_bands:  1 eigenvalues not converged
     c_bands:  1 eigenvalues not converged
     c_bands:  1 eigenvalues not converged
     c_bands:  1 eigenvalues not converged
     c_bands:  2 eigenvalues not converged
     c_bands:  1 eigenvalues not converged
     c_bands:  1 eigenvalues not converged
     c_bands:  1 eigenvalues not converged
     c_bands:  1 eigenvalues not converged
     c_bands:  1 eigenvalues not converged
     ethr =  3.18E-05,  avg # of iterations =  4.0

     total cpu time spent up to now is      114.0 secs

     total energy              =   -1336.17589794 Ry
     Harris-Foulkes estimate   =   -1336.17609173 Ry
     estimated scf accuracy    <       0.00123894 Ry

     iteration #  9     ecut=    40.00 Ry     beta=0.70
     CG style diagonalization
     c_bands:  1 eigenvalues not converged
     c_bands:  1 eigenvalues not converged
     c_bands:  1 eigenvalues not converged
     c_bands:  1 eigenvalues not converged
     c_bands:  1 eigenvalues not converged
     c_bands:  1 eigenvalues not converged
     c_bands:  1 eigenvalues not converged
     c_bands:  1 eigenvalues not converged
     c_bands:  1 eigenvalues not converged
     c_bands:  1 eigenvalues not converged
     c_bands:  1 eigenvalues not converged
     c_bands:  1 eigenvalues not converged
     c_bands:  1 eigenvalues not converged
     ethr =  1.44E-06,  avg # of iterations =  5.0

     total cpu time spent up to now is      123.6 secs

     total energy              =   -1336.17622554 Ry
     Harris-Foulkes estimate   =   -1336.17660724 Ry
     estimated scf accuracy    <       0.00058574 Ry

     iteration # 10     ecut=    40.00 Ry     beta=0.70
     CG style diagonalization
     c_bands:  1 eigenvalues not converged
     c_bands:  1 eigenvalues not converged
     c_bands:  1 eigenvalues not converged
     ethr =  6.81E-07,  avg # of iterations =  3.7

     total cpu time spent up to now is      130.5 secs

     total energy              =   -1336.17642144 Ry
     Harris-Foulkes estimate   =   -1336.17651234 Ry
     estimated scf accuracy    <       0.00019264 Ry

     iteration # 11     ecut=    40.00 Ry     beta=0.70
     CG style diagonalization
     ethr =  2.24E-07,  avg # of iterations =  3.3

     total cpu time spent up to now is      136.7 secs

     End of self-consistent calculation

     Number of k-points >= 100: set verbosity='high' to print the bands.

     the Fermi energy is    45.2257 ev

!    total energy              =   -1336.17645741 Ry
     Harris-Foulkes estimate   =   -1336.17645849 Ry
     estimated scf accuracy    <       0.00000116 Ry

     The total energy is the sum of the following terms:

     one-electron contribution =    -193.47911934 Ry
     hartree contribution      =     182.31897459 Ry
     xc contribution           =    -112.46719245 Ry
     ewald contribution        =   -1212.41229651 Ry
     smearing contrib. (-TS)   =      -0.13682370 Ry

     convergence has been achieved in  11 iterations

     Forces acting on atoms (Ry/au):

     atom    1 type  1   force =     0.00000000    0.00000000    0.00000000
     atom    2 type  1   force =     0.00000000    0.00000000    0.00000000
     atom    3 type  1   force =     0.00000000    0.00000000    0.00000000
     atom    4 type  2   force =     0.00000000    0.00000000    0.00000000

     Total force =     0.000000     Total SCF correction =     0.000000


     entering subroutine stress ...

          total   stress  (Ry/bohr**3)                   (kbar)     P= 2941.44
   0.01999547   0.00000000   0.00000000       2941.44      0.00      0.00
   0.00000000   0.01999547   0.00000000          0.00   2941.44      0.00
   0.00000000   0.00000000   0.01999547          0.00      0.00   2941.44


     BFGS Geometry Optimization

     number of scf cycles    =   1
     number of bfgs steps    =   0

     enthalpy new            =   -1336.1764574076 Ry

     new trust radius        =       0.5000000000 bohr
     new conv_thr            =       0.0001000000 Ry

     new unit-cell volume =    525.13076 a.u.^3 (    77.81635 Ang^3 )

CELL_PARAMETERS (alat=  7.13166486)
   1.131266415   0.000000000   0.000000000
   0.000000000   1.131266415   0.000000000
   0.000000000   0.000000000   1.131266415

ATOMIC_POSITIONS (crystal)
Cu       0.000000000   0.500000000   0.500000000
Cu       0.500000000   0.500000000   0.000000000
Cu       0.500000000   0.000000000   0.500000000
Au       0.000000000   0.000000000   0.000000000



     Writing output data file Prototype-La-cP4-Cu3Au.save
     NEW-OLD atomic charge density approx. for the potential
     NEW k-points: (use verbosity='high' to print them)

     total cpu time spent up to now is      139.3 secs

     Self-consistent Calculation

     iteration #  1     ecut=    40.00 Ry     beta=0.70
     CG style diagonalization
     c_bands:  2 eigenvalues not converged
     c_bands:  1 eigenvalues not converged
     c_bands:  1 eigenvalues not converged
     c_bands:  2 eigenvalues not converged
     c_bands:  5 eigenvalues not converged
     c_bands:  1 eigenvalues not converged
     c_bands:  1 eigenvalues not converged
     c_bands:  1 eigenvalues not converged
     c_bands:  3 eigenvalues not converged
     c_bands:  1 eigenvalues not converged
     c_bands:  2 eigenvalues not converged
     c_bands:  5 eigenvalues not converged
     c_bands:  1 eigenvalues not converged
     c_bands:  1 eigenvalues not converged
     c_bands:  1 eigenvalues not converged
     c_bands:  1 eigenvalues not converged
     c_bands:  1 eigenvalues not converged
     c_bands:  1 eigenvalues not converged
     c_bands:  1 eigenvalues not converged
     c_bands:  2 eigenvalues not converged
     c_bands:  2 eigenvalues not converged
     c_bands:  1 eigenvalues not converged
     c_bands:  1 eigenvalues not converged
     c_bands:  1 eigenvalues not converged
     c_bands:  1 eigenvalues not converged
     c_bands:  1 eigenvalues not converged
     c_bands:  1 eigenvalues not converged
     c_bands:  1 eigenvalues not converged
     c_bands:  1 eigenvalues not converged
     c_bands:  2 eigenvalues not converged
     c_bands:  1 eigenvalues not converged
     c_bands:  2 eigenvalues not converged
     c_bands:  1 eigenvalues not converged
     c_bands:  1 eigenvalues not converged
     c_bands:  1 eigenvalues not converged
     c_bands:  2 eigenvalues not converged
     c_bands:  2 eigenvalues not converged
     c_bands:  1 eigenvalues not converged
     c_bands:  1 eigenvalues not converged
     c_bands:  2 eigenvalues not converged
     c_bands:  2 eigenvalues not converged
     c_bands:  1 eigenvalues not converged
     c_bands:  1 eigenvalues not converged
     c_bands:  1 eigenvalues not converged
     c_bands:  1 eigenvalues not converged
     c_bands:  2 eigenvalues not converged
     c_bands:  1 eigenvalues not converged
     c_bands:  2 eigenvalues not converged
     c_bands:  2 eigenvalues not converged
     c_bands:  3 eigenvalues not converged
     c_bands:  3 eigenvalues not converged
     c_bands:  2 eigenvalues not converged
     c_bands:  1 eigenvalues not converged
     c_bands:  1 eigenvalues not converged
     c_bands:  2 eigenvalues not converged
     ethr =  1.00E-06,  avg # of iterations = 21.1

     total cpu time spent up to now is      177.9 secs

     total energy              =   -1325.25576572 Ry
     Harris-Foulkes estimate   =   -1354.06274419 Ry
     estimated scf accuracy    <      35.57850709 Ry

     iteration #  2     ecut=    40.00 Ry     beta=0.70
     CG style diagonalization
     ethr =  1.00E-02,  avg # of iterations =  4.3

     total cpu time spent up to now is      186.6 secs

     total energy              =   -1332.52204328 Ry
     Harris-Foulkes estimate   =   -1340.31156455 Ry
     estimated scf accuracy    <      11.51325199 Ry

     iteration #  3     ecut=    40.00 Ry     beta=0.70
     CG style diagonalization
     ethr =  1.00E-02,  avg # of iterations =  3.8

     total cpu time spent up to now is      193.7 secs

     total energy              =   -1335.82856636 Ry
     Harris-Foulkes estimate   =   -1338.76171296 Ry
     estimated scf accuracy    <       6.98747521 Ry

     iteration #  4     ecut=    40.00 Ry     beta=0.70
     CG style diagonalization
     ethr =  8.12E-03,  avg # of iterations =  3.2

     total cpu time spent up to now is      199.6 secs

     total energy              =   -1336.94612812 Ry
     Harris-Foulkes estimate   =   -1336.98076153 Ry
     estimated scf accuracy    <       0.09248038 Ry

     iteration #  5     ecut=    40.00 Ry     beta=0.70
     CG style diagonalization
     c_bands:  1 eigenvalues not converged
     ethr =  1.08E-04,  avg # of iterations =  4.2

     total cpu time spent up to now is      208.3 secs

     total energy              =   -1336.99187119 Ry
     Harris-Foulkes estimate   =   -1337.00069676 Ry
     estimated scf accuracy    <       0.01659819 Ry

     iteration #  6     ecut=    40.00 Ry     beta=0.70
     CG style diagonalization
     c_bands:  2 eigenvalues not converged
     c_bands:  1 eigenvalues not converged
     c_bands:  1 eigenvalues not converged
     c_bands:  1 eigenvalues not converged
     c_bands:  1 eigenvalues not converged
     c_bands:  1 eigenvalues not converged
     c_bands:  1 eigenvalues not converged
     ethr =  1.93E-05,  avg # of iterations =  3.6

     total cpu time spent up to now is      215.1 secs

     total energy              =   -1336.99565327 Ry
     Harris-Foulkes estimate   =   -1336.99748646 Ry
     estimated scf accuracy    <       0.00583234 Ry

     iteration #  7     ecut=    40.00 Ry     beta=0.70
     CG style diagonalization
     c_bands:  1 eigenvalues not converged
     c_bands:  1 eigenvalues not converged
     c_bands:  1 eigenvalues not converged
     c_bands:  1 eigenvalues not converged
     c_bands:  1 eigenvalues not converged
     c_bands:  1 eigenvalues not converged
     c_bands:  1 eigenvalues not converged
     c_bands:  1 eigenvalues not converged
     ethr =  6.78E-06,  avg # of iterations =  3.2

     total cpu time spent up to now is      221.1 secs

     total energy              =   -1336.99617039 Ry
     Harris-Foulkes estimate   =   -1336.99637731 Ry
     estimated scf accuracy    <       0.00046532 Ry

     iteration #  8     ecut=    40.00 Ry     beta=0.70
     CG style diagonalization
     c_bands:  1 eigenvalues not converged
     c_bands:  1 eigenvalues not converged
     c_bands:  1 eigenvalues not converged
     c_bands:  1 eigenvalues not converged
     c_bands:  1 eigenvalues not converged
     c_bands:  1 eigenvalues not converged
     c_bands:  1 eigenvalues not converged
     c_bands:  1 eigenvalues not converged
     c_bands:  1 eigenvalues not converged
     ethr =  5.41E-07,  avg # of iterations =  4.1

     total cpu time spent up to now is      228.6 secs

     End of self-consistent calculation

     Number of k-points >= 100: set verbosity='high' to print the bands.

     the Fermi energy is    30.4988 ev

!    total energy              =   -1336.99631275 Ry
     Harris-Foulkes estimate   =   -1336.99637453 Ry
     estimated scf accuracy    <       0.00006644 Ry

     The total energy is the sum of the following terms:

     one-electron contribution =    -395.31547222 Ry
     hartree contribution      =     239.40466261 Ry
     xc contribution           =    -109.17390862 Ry
     ewald contribution        =   -1071.73012861 Ry
     smearing contrib. (-TS)   =      -0.18146591 Ry

     convergence has been achieved in   8 iterations

     Forces acting on atoms (Ry/au):

     atom    1 type  1   force =     0.00000000    0.00000000    0.00000000
     atom    2 type  1   force =     0.00000000    0.00000000    0.00000000
     atom    3 type  1   force =     0.00000000    0.00000000    0.00000000
     atom    4 type  2   force =     0.00000000    0.00000000    0.00000000

     Total force =     0.000000     Total SCF correction =     0.000000


     entering subroutine stress ...

          total   stress  (Ry/bohr**3)                   (kbar)     P= -801.58
  -0.00544900   0.00000000   0.00000000       -801.58      0.00      0.00
   0.00000000  -0.00544900   0.00000000          0.00   -801.58      0.00
   0.00000000   0.00000000  -0.00544900          0.00      0.00   -801.58


     number of scf cycles    =   2
     number of bfgs steps    =   1

     enthalpy old            =   -1336.1764574076 Ry
     enthalpy new            =   -1336.9963127538 Ry

     CASE: enthalpy_new < enthalpy_old

     small trust_radius: resetting bfgs history

     new trust radius        =       0.6243391655 bohr
     new conv_thr            =       0.0000010000 Ry

     new unit-cell volume =    338.43037 a.u.^3 (    50.15021 Ang^3 )

CELL_PARAMETERS (alat=  7.13166486)
   0.977159633   0.000000000   0.000000000
   0.000000000   0.977159633   0.000000000
   0.000000000   0.000000000   0.977159633

ATOMIC_POSITIONS (crystal)
Cu       0.000000000   0.500000000   0.500000000
Cu       0.500000000   0.500000000   0.000000000
Cu       0.500000000   0.000000000   0.500000000
Au       0.000000000   0.000000000   0.000000000



     Writing output data file Prototype-La-cP4-Cu3Au.save
     NEW-OLD atomic charge density approx. for the potential
     NEW k-points: (use verbosity='high' to print them)

     total cpu time spent up to now is      231.0 secs

     Self-consistent Calculation

     iteration #  1     ecut=    40.00 Ry     beta=0.70
     CG style diagonalization
     c_bands:  2 eigenvalues not converged
     c_bands:  1 eigenvalues not converged
     c_bands:  3 eigenvalues not converged
     c_bands:  3 eigenvalues not converged
     c_bands:  4 eigenvalues not converged
     c_bands:  1 eigenvalues not converged
     c_bands:  2 eigenvalues not converged
     c_bands:  2 eigenvalues not converged
     c_bands:  2 eigenvalues not converged
     c_bands:  1 eigenvalues not converged
     c_bands:  1 eigenvalues not converged
     c_bands:  2 eigenvalues not converged
     c_bands:  2 eigenvalues not converged
     c_bands:  1 eigenvalues not converged
     c_bands:  2 eigenvalues not converged
     c_bands:  2 eigenvalues not converged
     c_bands:  1 eigenvalues not converged
     c_bands:  1 eigenvalues not converged
     c_bands:  1 eigenvalues not converged
     c_bands:  1 eigenvalues not converged
     c_bands:  5 eigenvalues not converged
     c_bands:  1 eigenvalues not converged
     c_bands:  2 eigenvalues not converged
     c_bands:  2 eigenvalues not converged
     c_bands:  2 eigenvalues not converged
     c_bands:  2 eigenvalues not converged
     c_bands:  1 eigenvalues not converged
     c_bands:  1 eigenvalues not converged
     c_bands:  1 eigenvalues not converged
     c_bands:  1 eigenvalues not converged
     c_bands:  1 eigenvalues not converged
     c_bands:  1 eigenvalues not converged
     c_bands:  3 eigenvalues not converged
     c_bands:  1 eigenvalues not converged
     c_bands:  1 eigenvalues not converged
     c_bands:  1 eigenvalues not converged
     c_bands:  2 eigenvalues not converged
     c_bands:  3 eigenvalues not converged
     c_bands:  1 eigenvalues not converged
     c_bands:  1 eigenvalues not converged
     c_bands:  2 eigenvalues not converged
     c_bands:  1 eigenvalues not converged
     c_bands:  1 eigenvalues not converged
     c_bands:  2 eigenvalues not converged
     c_bands:  1 eigenvalues not converged
     c_bands:  1 eigenvalues not converged
     c_bands:  1 eigenvalues not converged
     c_bands:  2 eigenvalues not converged
     c_bands:  1 eigenvalues not converged
     c_bands:  1 eigenvalues not converged
     c_bands:  1 eigenvalues not converged
     c_bands:  2 eigenvalues not converged
     c_bands:  1 eigenvalues not converged
     c_bands:  3 eigenvalues not converged
     c_bands:  1 eigenvalues not converged
     c_bands:  2 eigenvalues not converged
     c_bands:  2 eigenvalues not converged
     c_bands:  1 eigenvalues not converged
     c_bands:  1 eigenvalues not converged
     c_bands:  2 eigenvalues not converged
     c_bands:  2 eigenvalues not converged
     c_bands:  1 eigenvalues not converged
     c_bands:  1 eigenvalues not converged
     c_bands:  2 eigenvalues not converged
     c_bands:  2 eigenvalues not converged
     c_bands:  1 eigenvalues not converged
     c_bands:  2 eigenvalues not converged
     c_bands:  1 eigenvalues not converged
     c_bands:  2 eigenvalues not converged
     ethr =  1.00E-06,  avg # of iterations = 24.7

     total cpu time spent up to now is      275.7 secs

     total energy              =   -1316.90944734 Ry
     Harris-Foulkes estimate   =   -1362.87581874 Ry
     estimated scf accuracy    <      56.33401200 Ry

     iteration #  2     ecut=    40.00 Ry     beta=0.70
     CG style diagonalization
     ethr =  1.00E-02,  avg # of iterations =  4.8

     total cpu time spent up to now is      284.7 secs

     total energy              =   -1332.59573501 Ry
     Harris-Foulkes estimate   =   -1339.39073169 Ry
     estimated scf accuracy    <       9.61838298 Ry

     iteration #  3     ecut=    40.00 Ry     beta=0.70
     CG style diagonalization
     ethr =  1.00E-02,  avg # of iterations =  3.8

     total cpu time spent up to now is      291.7 secs

     total energy              =   -1335.04208692 Ry
     Harris-Foulkes estimate   =   -1336.34374182 Ry
     estimated scf accuracy    <       2.60237305 Ry

     iteration #  4     ecut=    40.00 Ry     beta=0.70
     CG style diagonalization
     ethr =  3.03E-03,  avg # of iterations =  3.4

     total cpu time spent up to now is      298.0 secs

     total energy              =   -1335.59004261 Ry
     Harris-Foulkes estimate   =   -1335.60273717 Ry
     estimated scf accuracy    <       0.02191295 Ry

     iteration #  5     ecut=    40.00 Ry     beta=0.70
     CG style diagonalization
     c_bands:  1 eigenvalues not converged
     c_bands:  1 eigenvalues not converged
     c_bands:  2 eigenvalues not converged
     c_bands:  1 eigenvalues not converged
     c_bands:  1 eigenvalues not converged
     c_bands:  1 eigenvalues not converged
     c_bands:  3 eigenvalues not converged
     c_bands:  1 eigenvalues not converged
     c_bands:  2 eigenvalues not converged
     c_bands:  1 eigenvalues not converged
     c_bands:  2 eigenvalues not converged
     c_bands:  2 eigenvalues not converged
     c_bands:  1 eigenvalues not converged
     c_bands:  2 eigenvalues not converged
     c_bands:  1 eigenvalues not converged
     c_bands:  1 eigenvalues not converged
     c_bands:  1 eigenvalues not converged
     c_bands:  1 eigenvalues not converged
     c_bands:  2 eigenvalues not converged
     c_bands:  1 eigenvalues not converged
     c_bands:  2 eigenvalues not converged
     c_bands:  1 eigenvalues not converged
     c_bands:  1 eigenvalues not converged
     c_bands:  2 eigenvalues not converged
     c_bands:  1 eigenvalues not converged
     c_bands:  2 eigenvalues not converged
     c_bands:  1 eigenvalues not converged
     c_bands:  1 eigenvalues not converged
     c_bands:  2 eigenvalues not converged
     c_bands:  1 eigenvalues not converged
     ethr =  2.55E-05,  avg # of iterations =  5.2

     total cpu time spent up to now is      309.0 secs

     total energy              =   -1335.60672647 Ry
     Harris-Foulkes estimate   =   -1335.60862893 Ry
     estimated scf accuracy    <       0.00392581 Ry

     iteration #  6     ecut=    40.00 Ry     beta=0.70
     CG style diagonalization
     c_bands:  1 eigenvalues not converged
     c_bands:  2 eigenvalues not converged
     c_bands:  1 eigenvalues not converged
     c_bands:  1 eigenvalues not converged
     c_bands:  1 eigenvalues not converged
     c_bands:  1 eigenvalues not converged
     c_bands:  1 eigenvalues not converged
     c_bands:  1 eigenvalues not converged
     c_bands:  1 eigenvalues not converged
     c_bands:  1 eigenvalues not converged
     c_bands:  1 eigenvalues not converged
     c_bands:  1 eigenvalues not converged
     c_bands:  1 eigenvalues not converged
     c_bands:  1 eigenvalues not converged
     c_bands:  1 eigenvalues not converged
     ethr =  4.56E-06,  avg # of iterations =  3.9

     total cpu time spent up to now is      316.4 secs

     total energy              =   -1335.60773830 Ry
     Harris-Foulkes estimate   =   -1335.60777045 Ry
     estimated scf accuracy    <       0.00005035 Ry

     iteration #  7     ecut=    40.00 Ry     beta=0.70
     CG style diagonalization
     c_bands:  1 eigenvalues not converged
     c_bands:  1 eigenvalues not converged
     c_bands:  1 eigenvalues not converged
     c_bands:  1 eigenvalues not converged
     c_bands:  1 eigenvalues not converged
     c_bands:  1 eigenvalues not converged
     ethr =  5.86E-08,  avg # of iterations =  5.4

     total cpu time spent up to now is      326.3 secs

     total energy              =   -1335.60783021 Ry
     Harris-Foulkes estimate   =   -1335.60783596 Ry
     estimated scf accuracy    <       0.00001163 Ry

     iteration #  8     ecut=    40.00 Ry     beta=0.70
     CG style diagonalization
     c_bands:  1 eigenvalues not converged
     c_bands:  1 eigenvalues not converged
     ethr =  1.35E-08,  avg # of iterations =  3.5

     total cpu time spent up to now is      332.7 secs

     End of self-consistent calculation

     Number of k-points >= 100: set verbosity='high' to print the bands.

     the Fermi energy is    48.3782 ev

!    total energy              =   -1335.60783345 Ry
     Harris-Foulkes estimate   =   -1335.60783384 Ry
     estimated scf accuracy    <       0.00000042 Ry

     The total energy is the sum of the following terms:

     one-electron contribution =    -153.69975650 Ry
     hartree contribution      =     172.19724922 Ry
     xc contribution           =    -113.22054785 Ry
     ewald contribution        =   -1240.75151689 Ry
     smearing contrib. (-TS)   =      -0.13326144 Ry

     convergence has been achieved in   8 iterations

     Forces acting on atoms (Ry/au):

     atom    1 type  1   force =     0.00000000    0.00000000    0.00000000
     atom    2 type  1   force =     0.00000000    0.00000000    0.00000000
     atom    3 type  1   force =     0.00000000    0.00000000    0.00000000
     atom    4 type  2   force =     0.00000000    0.00000000    0.00000000

     Total force =     0.000000     Total SCF correction =     0.000000


     entering subroutine stress ...

          total   stress  (Ry/bohr**3)                   (kbar)     P= 3975.45
   0.02702459   0.00000000   0.00000000       3975.45      0.00      0.00
   0.00000000   0.02702459   0.00000000          0.00   3975.45      0.00
   0.00000000   0.00000000   0.02702459          0.00      0.00   3975.45


     number of scf cycles    =   3
     number of bfgs steps    =   2

     enthalpy old            =   -1336.9963127538 Ry
     enthalpy new            =   -1335.6078334504 Ry

     CASE: enthalpy_new > enthalpy_old

     new trust radius        =       0.1326397121 bohr

     trust_radius < trust_radius_min

     resetting bfgs history

     Message from routine bfgs:
     history already reset at previous step: stopping
     new conv_thr            =       0.0000010000 Ry

     new unit-cell volume =    361.06386 a.u.^3 (    53.50414 Ang^3 )

CELL_PARAMETERS (alat=  7.13166486)
   0.998474735   0.000000000   0.000000000
   0.000000000   0.998474735   0.000000000
   0.000000000   0.000000000   0.998474735

ATOMIC_POSITIONS (crystal)
Cu       0.000000000   0.500000000   0.500000000
Cu       0.500000000   0.500000000   0.000000000
Cu       0.500000000   0.000000000   0.500000000
Au       0.000000000   0.000000000   0.000000000



     Writing output data file Prototype-La-cP4-Cu3Au.save
     NEW-OLD atomic charge density approx. for the potential
     NEW k-points: (use verbosity='high' to print them)

     total cpu time spent up to now is      335.0 secs

     Self-consistent Calculation

     iteration #  1     ecut=    40.00 Ry     beta=0.70
     CG style diagonalization
     c_bands:  1 eigenvalues not converged
     c_bands:  1 eigenvalues not converged
     c_bands:  2 eigenvalues not converged
     c_bands:  3 eigenvalues not converged
     c_bands:  1 eigenvalues not converged
     c_bands:  2 eigenvalues not converged
     c_bands:  2 eigenvalues not converged
     c_bands:  4 eigenvalues not converged
     c_bands:  1 eigenvalues not converged
     c_bands:  1 eigenvalues not converged
     c_bands:  1 eigenvalues not converged
     c_bands:  2 eigenvalues not converged
     c_bands:  2 eigenvalues not converged
     c_bands:  2 eigenvalues not converged
     c_bands:  2 eigenvalues not converged
     c_bands:  3 eigenvalues not converged
     c_bands:  1 eigenvalues not converged
     c_bands:  1 eigenvalues not converged
     c_bands:  4 eigenvalues not converged
     c_bands:  3 eigenvalues not converged
     c_bands:  2 eigenvalues not converged
     c_bands:  3 eigenvalues not converged
     c_bands:  4 eigenvalues not converged
     c_bands:  4 eigenvalues not converged
     c_bands:  5 eigenvalues not converged
     c_bands:  3 eigenvalues not converged
     c_bands:  3 eigenvalues not converged
     c_bands:  5 eigenvalues not converged
     c_bands:  3 eigenvalues not converged
     c_bands:  4 eigenvalues not converged
     c_bands:  3 eigenvalues not converged
     c_bands:  3 eigenvalues not converged
     c_bands:  3 eigenvalues not converged
     c_bands:  1 eigenvalues not converged
     c_bands:  3 eigenvalues not converged
     c_bands:  2 eigenvalues not converged
     c_bands:  3 eigenvalues not converged
     c_bands:  3 eigenvalues not converged
     c_bands:  5 eigenvalues not converged
     c_bands:  5 eigenvalues not converged
     c_bands:  5 eigenvalues not converged
     c_bands:  2 eigenvalues not converged
     c_bands:  5 eigenvalues not converged
     c_bands:  5 eigenvalues not converged
     c_bands:  4 eigenvalues not converged
     c_bands:  1 eigenvalues not converged
     c_bands:  4 eigenvalues not converged
     c_bands:  3 eigenvalues not converged
     c_bands:  2 eigenvalues not converged
     c_bands:  1 eigenvalues not converged
     c_bands:  2 eigenvalues not converged
     c_bands:  1 eigenvalues not converged
     c_bands:  5 eigenvalues not converged
     c_bands:  3 eigenvalues not converged
     c_bands:  2 eigenvalues not converged
     c_bands:  1 eigenvalues not converged
     c_bands:  4 eigenvalues not converged
     c_bands:  4 eigenvalues not converged
     c_bands:  3 eigenvalues not converged
     c_bands:  4 eigenvalues not converged
     c_bands:  5 eigenvalues not converged
     c_bands:  2 eigenvalues not converged
     c_bands:  5 eigenvalues not converged
     c_bands:  4 eigenvalues not converged
     c_bands:  4 eigenvalues not converged
     c_bands:  2 eigenvalues not converged
     c_bands:  4 eigenvalues not converged
     c_bands:  4 eigenvalues not converged
     c_bands:  3 eigenvalues not converged
     c_bands:  1 eigenvalues not converged
     ethr =  1.00E-06,  avg # of iterations = 11.6

     total cpu time spent up to now is      356.4 secs

     total energy              =   -1335.79206257 Ry
     Harris-Foulkes estimate   =   -1336.68638463 Ry
     estimated scf accuracy    <       1.11230838 Ry

     iteration #  2     ecut=    40.00 Ry     beta=0.70
     CG style diagonalization
     ethr =  1.29E-03,  avg # of iterations =  3.8

     total cpu time spent up to now is      363.5 secs

     total energy              =   -1336.09821493 Ry
     Harris-Foulkes estimate   =   -1336.19310330 Ry
     estimated scf accuracy    <       0.13025509 Ry

     iteration #  3     ecut=    40.00 Ry     beta=0.70
     CG style diagonalization
     ethr =  1.51E-04,  avg # of iterations =  3.8

     total cpu time spent up to now is      370.6 secs

     total energy              =   -1336.13379839 Ry
     Harris-Foulkes estimate   =   -1336.15329715 Ry
     estimated scf accuracy    <       0.04054471 Ry

     iteration #  4     ecut=    40.00 Ry     beta=0.70
     CG style diagonalization
     ethr =  4.71E-05,  avg # of iterations =  3.3

     total cpu time spent up to now is      376.6 secs

     total energy              =   -1336.14265277 Ry
     Harris-Foulkes estimate   =   -1336.14273581 Ry
     estimated scf accuracy    <       0.00013780 Ry

     iteration #  5     ecut=    40.00 Ry     beta=0.70
     CG style diagonalization
     c_bands:  1 eigenvalues not converged
     c_bands:  1 eigenvalues not converged
     ethr =  1.60E-07,  avg # of iterations =  5.4

     total cpu time spent up to now is      386.7 secs

     total energy              =   -1336.14291408 Ry
     Harris-Foulkes estimate   =   -1336.14295390 Ry
     estimated scf accuracy    <       0.00008650 Ry

     iteration #  6     ecut=    40.00 Ry     beta=0.70
     CG style diagonalization
     c_bands:  1 eigenvalues not converged
     ethr =  1.01E-07,  avg # of iterations =  3.3

     total cpu time spent up to now is      394.1 secs

     total energy              =   -1336.14292792 Ry
     Harris-Foulkes estimate   =   -1336.14292894 Ry
     estimated scf accuracy    <       0.00000165 Ry

     iteration #  7     ecut=    40.00 Ry     beta=0.70
     CG style diagonalization
     ethr =  1.92E-09,  avg # of iterations =  4.5

     total cpu time spent up to now is      402.6 secs

     End of self-consistent calculation

     Number of k-points >= 100: set verbosity='high' to print the bands.

     the Fermi energy is    45.4308 ev

!    total energy              =   -1336.14292877 Ry
     Harris-Foulkes estimate   =   -1336.14292948 Ry
     estimated scf accuracy    <       0.00000078 Ry

     The total energy is the sum of the following terms:

     one-electron contribution =    -190.88315013 Ry
     hartree contribution      =     181.65686978 Ry
     xc contribution           =    -112.51560616 Ry
     ewald contribution        =   -1214.26437156 Ry
     smearing contrib. (-TS)   =      -0.13667070 Ry

     convergence has been achieved in   7 iterations

     Forces acting on atoms (Ry/au):

     atom    1 type  1   force =     0.00000000    0.00000000    0.00000000
     atom    2 type  1   force =     0.00000000    0.00000000    0.00000000
     atom    3 type  1   force =     0.00000000    0.00000000    0.00000000
     atom    4 type  2   force =     0.00000000    0.00000000    0.00000000

     Total force =     0.000000     Total SCF correction =     0.000000


     entering subroutine stress ...

          total   stress  (Ry/bohr**3)                   (kbar)     P= 3007.34
   0.02044351   0.00000000   0.00000000       3007.34      0.00      0.00
   0.00000000   0.02044351   0.00000000          0.00   3007.34      0.00
   0.00000000   0.00000000   0.02044351          0.00      0.00   3007.34


     The maximum number of steps has been reached.

     End of BFGS Geometry Optimization
Begin final coordinates
     new unit-cell volume =    361.06386 a.u.^3 (    53.50414 Ang^3 )

CELL_PARAMETERS (alat=  7.13166486)
   0.998474735   0.000000000   0.000000000
   0.000000000   0.998474735   0.000000000
   0.000000000   0.000000000   0.998474735

ATOMIC_POSITIONS (crystal)
Cu       0.000000000   0.500000000   0.500000000
Cu       0.500000000   0.500000000   0.000000000
Cu       0.500000000   0.000000000   0.500000000
Au       0.000000000   0.000000000   0.000000000
End final coordinates



     A final scf calculation at the relaxed structure.
     The G-vectors are recalculated for the final unit cell
     Results may differ from those at the preceding step.
 
     Parallelization info
     --------------------
     sticks:   dense  smooth     PW     G-vecs:    dense   smooth      PW
     Min         163     163     48                 3073     3073     524
     Max         165     165     49                 3074     3074     527
     Sum         657     657    193                12293    12293    2103
 


     bravais-lattice index     =            0
     lattice parameter (alat)  =       7.1317  a.u.
     unit-cell volume          =     361.0639 (a.u.)^3
     number of atoms/cell      =            4
     number of atomic types    =            2
     number of electrons       =        86.00
     number of Kohn-Sham states=           52
     kinetic-energy cutoff     =      40.0000  Ry
     charge density cutoff     =     160.0000  Ry
     convergence threshold     =      1.0E-06
     mixing beta               =       0.7000
     number of iterations used =            8  plain     mixing
     Exchange-correlation      = SLA-PZ-NOGX-NOGC ( 1 1 0 0 0)
     EXX-fraction              =        0.00

     celldm(1)=   7.131665  celldm(2)=   0.000000  celldm(3)=   0.000000
     celldm(4)=   0.000000  celldm(5)=   0.000000  celldm(6)=   0.000000

     crystal axes: (cart. coord. in units of alat)
               a(1) = (   0.998475   0.000000   0.000000 )  
               a(2) = (   0.000000   0.998475   0.000000 )  
               a(3) = (   0.000000   0.000000   0.998475 )  

     reciprocal axes: (cart. coord. in units 2 pi/alat)
               b(1) = (  1.001528  0.000000  0.000000 )  
               b(2) = (  0.000000  1.001528  0.000000 )  
               b(3) = (  0.000000  0.000000  1.001528 )  


     PseudoPot. # 1 for Yb read from file:
     /home/jld5415/pp.La/Yb.UPF
     MD5 check sum: 3e859b81cc28c53ec6aa3a2e888efcdf
     Pseudo is Norm-conserving, Zval = 24.0
     Generated in analytical, separable form
     Using radial grid of 1269 points,  6 beta functions with: 
                l(1) =   0
                l(2) =   0
                l(3) =   1
                l(4) =   1
                l(5) =   2
                l(6) =   3

     PseudoPot. # 2 for Nd read from file:
     /home/jld5415/pp.La/Nd.UPF
     MD5 check sum: c66c5b6abe7b5840ced9b1e244e3bed6
     Pseudo is Norm-conserving, Zval = 14.0
     Generated in analytical, separable form
     Using radial grid of 1257 points,  6 beta functions with: 
                l(1) =   0
                l(2) =   0
                l(3) =   1
                l(4) =   1
                l(5) =   2
                l(6) =   3

     atomic species   valence    mass     pseudopotential
        Cu            24.00    63.54600     Yb( 1.00)
        Au            14.00   196.96600     Nd( 1.00)

     48 Sym. Ops., with inversion, found



   Cartesian axes

     site n.     atom                  positions (alat units)
         1           Cu  tau(   1) = (   0.0000000   0.4992374   0.4992374  )
         2           Cu  tau(   2) = (   0.4992374   0.4992374   0.0000000  )
         3           Cu  tau(   3) = (   0.4992374   0.0000000   0.4992374  )
         4           Au  tau(   4) = (   0.0000000   0.0000000   0.0000000  )

     number of k points=   100  gaussian smearing, width (Ry)=  0.1000

     Number of k-points >= 100: set verbosity='high' to print them.

     Dense  grid:    12293 G-vectors     FFT dimensions: (  30,  30,  30)

     Largest allocated arrays     est. size (Mb)     dimensions
        Kohn-Sham Wavefunctions         0.32 Mb     (    400,   52)
        NL pseudopotentials             0.49 Mb     (    400,   80)
        Each V/rho on FFT grid          0.11 Mb     (   7200)
        Each G-vector array             0.02 Mb     (   3074)
        G-vector shells                 0.00 Mb     (    172)
     Largest temporary arrays     est. size (Mb)     dimensions
        Each subspace H/S matrix        0.04 Mb     (  52,  52)
        Each <psi_i|beta_j> matrix      0.06 Mb     (     80,   52)
        Arrays for rho mixing           0.88 Mb     (   7200,   8)

     Initial potential from superposition of free atoms

     Starting from uniform charge
     Starting wfc are    0 randomized atomic wfcs

     Writing output data file Prototype-La-cP4-Cu3Au.save

     total cpu time spent up to now is      406.5 secs

     Self-consistent Calculation

     iteration #  1     ecut=    40.00 Ry     beta=0.70
     CG style diagonalization
     c_bands:  1 eigenvalues not converged
     c_bands:  1 eigenvalues not converged
     c_bands:  1 eigenvalues not converged
     c_bands:  1 eigenvalues not converged
     c_bands:  1 eigenvalues not converged
     c_bands:  1 eigenvalues not converged
     c_bands:  1 eigenvalues not converged
     c_bands:  1 eigenvalues not converged
     c_bands:  1 eigenvalues not converged
     c_bands:  1 eigenvalues not converged
     c_bands:  1 eigenvalues not converged
     ethr =  1.00E-06,  avg # of iterations = 44.5

     total cpu time spent up to now is      486.2 secs

     total energy              =   -1025.37436451 Ry
     Harris-Foulkes estimate   =   -1687.01151074 Ry
     estimated scf accuracy    <     809.58420776 Ry

     iteration #  2     ecut=    40.00 Ry     beta=0.70
     CG style diagonalization
     c_bands:  1 eigenvalues not converged
     c_bands:  1 eigenvalues not converged
     c_bands:  2 eigenvalues not converged
     c_bands:  1 eigenvalues not converged
     c_bands:  2 eigenvalues not converged
     c_bands:  1 eigenvalues not converged
     c_bands:  1 eigenvalues not converged
     c_bands:  1 eigenvalues not converged
     c_bands:  1 eigenvalues not converged
     c_bands:  2 eigenvalues not converged
     c_bands:  1 eigenvalues not converged
     c_bands:  2 eigenvalues not converged
     c_bands:  2 eigenvalues not converged
     c_bands:  1 eigenvalues not converged
     c_bands:  2 eigenvalues not converged
     c_bands:  2 eigenvalues not converged
     c_bands:  1 eigenvalues not converged
     c_bands:  1 eigenvalues not converged
     c_bands:  2 eigenvalues not converged
     c_bands:  2 eigenvalues not converged
     c_bands:  1 eigenvalues not converged
     c_bands:  2 eigenvalues not converged
     c_bands:  1 eigenvalues not converged
     c_bands:  1 eigenvalues not converged
     c_bands:  1 eigenvalues not converged
     c_bands:  1 eigenvalues not converged
     c_bands:  2 eigenvalues not converged
     c_bands:  3 eigenvalues not converged
     c_bands:  2 eigenvalues not converged
     c_bands:  1 eigenvalues not converged
     c_bands:  1 eigenvalues not converged
     c_bands:  2 eigenvalues not converged
     c_bands:  1 eigenvalues not converged
     c_bands:  1 eigenvalues not converged
     c_bands:  1 eigenvalues not converged
     c_bands:  2 eigenvalues not converged
     c_bands:  1 eigenvalues not converged
     c_bands:  1 eigenvalues not converged
     c_bands:  2 eigenvalues not converged
     c_bands:  2 eigenvalues not converged
     c_bands:  1 eigenvalues not converged
     c_bands:  1 eigenvalues not converged
     c_bands:  1 eigenvalues not converged
     c_bands:  1 eigenvalues not converged
     c_bands:  2 eigenvalues not converged
     c_bands:  1 eigenvalues not converged
     ethr =  1.00E-02,  avg # of iterations = 12.5

     total cpu time spent up to now is      509.6 secs

     total energy              =   -1111.85853581 Ry
     Harris-Foulkes estimate   =   -1516.38481988 Ry
     estimated scf accuracy    <     734.29959300 Ry

     iteration #  3     ecut=    40.00 Ry     beta=0.70
     CG style diagonalization
     c_bands:  1 eigenvalues not converged
     c_bands:  1 eigenvalues not converged
     c_bands:  1 eigenvalues not converged
     c_bands:  1 eigenvalues not converged
     c_bands:  1 eigenvalues not converged
     c_bands:  1 eigenvalues not converged
     c_bands:  1 eigenvalues not converged
     c_bands:  1 eigenvalues not converged
     c_bands:  1 eigenvalues not converged
     c_bands:  1 eigenvalues not converged
     c_bands:  1 eigenvalues not converged
     c_bands:  1 eigenvalues not converged
     c_bands:  1 eigenvalues not converged
     c_bands:  1 eigenvalues not converged
     c_bands:  1 eigenvalues not converged
     c_bands:  1 eigenvalues not converged
     c_bands:  2 eigenvalues not converged
     c_bands:  1 eigenvalues not converged
     c_bands:  1 eigenvalues not converged
     c_bands:  1 eigenvalues not converged
     c_bands:  1 eigenvalues not converged
     c_bands:  1 eigenvalues not converged
     c_bands:  2 eigenvalues not converged
     c_bands:  2 eigenvalues not converged
     c_bands:  1 eigenvalues not converged
     c_bands:  1 eigenvalues not converged
     c_bands:  1 eigenvalues not converged
     c_bands:  1 eigenvalues not converged
     c_bands:  1 eigenvalues not converged
     c_bands:  2 eigenvalues not converged
     c_bands:  1 eigenvalues not converged
     c_bands:  1 eigenvalues not converged
     c_bands:  1 eigenvalues not converged
     c_bands:  1 eigenvalues not converged
     ethr =  1.00E-02,  avg # of iterations = 10.5

     total cpu time spent up to now is      529.5 secs

     total energy              =   -1324.17634797 Ry
     Harris-Foulkes estimate   =   -1369.02457229 Ry
     estimated scf accuracy    <     103.13793225 Ry

     iteration #  4     ecut=    40.00 Ry     beta=0.70
     CG style diagonalization
     ethr =  1.00E-02,  avg # of iterations =  5.1

     total cpu time spent up to now is      539.1 secs

     total energy              =   -1336.22906641 Ry
     Harris-Foulkes estimate   =   -1338.38900049 Ry
     estimated scf accuracy    <       6.23509020 Ry

     iteration #  5     ecut=    40.00 Ry     beta=0.70
     CG style diagonalization
     ethr =  7.25E-03,  avg # of iterations =  3.1

     total cpu time spent up to now is      545.6 secs

     total energy              =   -1335.31503662 Ry
     Harris-Foulkes estimate   =   -1336.65566473 Ry
     estimated scf accuracy    <       2.32929695 Ry

     iteration #  6     ecut=    40.00 Ry     beta=0.70
     CG style diagonalization
     ethr =  2.71E-03,  avg # of iterations =  4.1

     total cpu time spent up to now is      554.0 secs

     total energy              =   -1336.02736009 Ry
     Harris-Foulkes estimate   =   -1336.19287788 Ry
     estimated scf accuracy    <       0.26127174 Ry

     iteration #  7     ecut=    40.00 Ry     beta=0.70
     CG style diagonalization
     c_bands:  1 eigenvalues not converged
     c_bands:  1 eigenvalues not converged
     c_bands:  1 eigenvalues not converged
     c_bands:  1 eigenvalues not converged
     c_bands:  1 eigenvalues not converged
     c_bands:  1 eigenvalues not converged
     c_bands:  1 eigenvalues not converged
     c_bands:  1 eigenvalues not converged
     c_bands:  1 eigenvalues not converged
     ethr =  3.04E-04,  avg # of iterations =  4.1

     total cpu time spent up to now is      561.9 secs

     total energy              =   -1336.11794791 Ry
     Harris-Foulkes estimate   =   -1336.13799662 Ry
     estimated scf accuracy    <       0.04496424 Ry

     iteration #  8     ecut=    40.00 Ry     beta=0.70
     CG style diagonalization
     c_bands:  1 eigenvalues not converged
     c_bands:  1 eigenvalues not converged
     c_bands:  2 eigenvalues not converged
     c_bands:  2 eigenvalues not converged
     c_bands:  1 eigenvalues not converged
     c_bands:  1 eigenvalues not converged
     c_bands:  1 eigenvalues not converged
     c_bands:  1 eigenvalues not converged
     c_bands:  1 eigenvalues not converged
     c_bands:  1 eigenvalues not converged
     c_bands:  1 eigenvalues not converged
     c_bands:  1 eigenvalues not converged
     c_bands:  1 eigenvalues not converged
     c_bands:  1 eigenvalues not converged
     c_bands:  1 eigenvalues not converged
     c_bands:  1 eigenvalues not converged
     c_bands:  1 eigenvalues not converged
     c_bands:  1 eigenvalues not converged
     ethr =  5.23E-05,  avg # of iterations =  3.8

     total cpu time spent up to now is      569.2 secs

     total energy              =   -1336.12649468 Ry
     Harris-Foulkes estimate   =   -1336.12671990 Ry
     estimated scf accuracy    <       0.00142202 Ry

     iteration #  9     ecut=    40.00 Ry     beta=0.70
     CG style diagonalization
     c_bands:  1 eigenvalues not converged
     c_bands:  1 eigenvalues not converged
     c_bands:  1 eigenvalues not converged
     c_bands:  1 eigenvalues not converged
     c_bands:  1 eigenvalues not converged
     c_bands:  1 eigenvalues not converged
     c_bands:  1 eigenvalues not converged
     c_bands:  1 eigenvalues not converged
     c_bands:  1 eigenvalues not converged
     c_bands:  1 eigenvalues not converged
     c_bands:  1 eigenvalues not converged
     c_bands:  1 eigenvalues not converged
     c_bands:  2 eigenvalues not converged
     c_bands:  1 eigenvalues not converged
     c_bands:  1 eigenvalues not converged
     c_bands:  1 eigenvalues not converged
     ethr =  1.65E-06,  avg # of iterations =  5.4

     negative rho (up, down):  0.214E-06 0.000E+00

     total cpu time spent up to now is      579.3 secs

     total energy              =   -1336.12715358 Ry
     Harris-Foulkes estimate   =   -1336.12748546 Ry
     estimated scf accuracy    <       0.00049827 Ry

     iteration # 10     ecut=    40.00 Ry     beta=0.70
     CG style diagonalization
     c_bands:  1 eigenvalues not converged
     c_bands:  1 eigenvalues not converged
     c_bands:  1 eigenvalues not converged
     c_bands:  1 eigenvalues not converged
     c_bands:  1 eigenvalues not converged
     ethr =  5.79E-07,  avg # of iterations =  3.7

     total cpu time spent up to now is      586.1 secs

     total energy              =   -1336.12731221 Ry
     Harris-Foulkes estimate   =   -1336.12742069 Ry
     estimated scf accuracy    <       0.00022116 Ry

     iteration # 11     ecut=    40.00 Ry     beta=0.70
     CG style diagonalization
     ethr =  2.57E-07,  avg # of iterations =  3.4

     total cpu time spent up to now is      592.3 secs

     End of self-consistent calculation

     Number of k-points >= 100: set verbosity='high' to print the bands.

     the Fermi energy is    45.4336 ev

!    total energy              =   -1336.12735621 Ry
     Harris-Foulkes estimate   =   -1336.12735647 Ry
     estimated scf accuracy    <       0.00000028 Ry

     The total energy is the sum of the following terms:

     one-electron contribution =    -190.84668985 Ry
     hartree contribution      =     181.63335052 Ry
     xc contribution           =    -112.51303059 Ry
     ewald contribution        =   -1214.26437156 Ry
     smearing contrib. (-TS)   =      -0.13661473 Ry

     convergence has been achieved in  11 iterations

     Forces acting on atoms (Ry/au):

     atom    1 type  1   force =     0.00000000    0.00000000    0.00000000
     atom    2 type  1   force =     0.00000000    0.00000000    0.00000000
     atom    3 type  1   force =     0.00000000    0.00000000    0.00000000
     atom    4 type  2   force =     0.00000000    0.00000000    0.00000000

     Total force =     0.000000     Total SCF correction =     0.000000


     entering subroutine stress ...

          total   stress  (Ry/bohr**3)                   (kbar)     P= 2996.98
   0.02037304   0.00000000   0.00000000       2996.98      0.00      0.00
   0.00000000   0.02037304   0.00000000          0.00   2996.98      0.00
   0.00000000   0.00000000   0.02037304          0.00      0.00   2996.98


     Writing output data file Prototype-La-cP4-Cu3Au.save
 
     init_run     :      3.25s CPU      3.65s WALL (       2 calls)
     electrons    :    551.13s CPU    579.08s WALL (       5 calls)
     update_pot   :      0.82s CPU      0.83s WALL (       3 calls)
     forces       :      2.24s CPU      2.49s WALL (       5 calls)
     stress       :      6.19s CPU      6.29s WALL (       5 calls)

     Called by init_run:
     wfcinit      :      2.92s CPU      3.31s WALL (       2 calls)
     potinit      :      0.13s CPU      0.13s WALL (       2 calls)

     Called by electrons:
     c_bands      :    527.76s CPU    553.93s WALL (      45 calls)
     sum_band     :     23.15s CPU     24.28s WALL (      45 calls)
     v_of_rho     :      0.03s CPU      0.03s WALL (      50 calls)
     mix_rho      :      0.03s CPU      0.03s WALL (      45 calls)

     Called by c_bands:
     init_us_2    :      1.99s CPU      2.27s WALL (   10200 calls)
     ccgdiagg     :    460.29s CPU    478.40s WALL (    4914 calls)
     wfcrot       :     68.16s CPU     73.93s WALL (    5014 calls)

     Called by *cgdiagg:
     h_psi        :    354.10s CPU    379.72s WALL ( 1347210 calls)
     cdiaghg      :      4.91s CPU      5.26s WALL (    5014 calls)

     Called by h_psi:
     add_vuspsi   :     28.44s CPU     39.88s WALL ( 1347210 calls)

     General routines
     calbec       :     91.10s CPU     87.96s WALL ( 2690406 calls)
     fft          :      0.04s CPU      0.04s WALL (     223 calls)
     fftw         :    273.75s CPU    278.21s WALL ( 3439848 calls)
     davcio       :      1.76s CPU      4.23s WALL (   14700 calls)
 
     Parallel routines
     fft_scatter  :     83.43s CPU     91.28s WALL ( 3440071 calls)
 
     PWSCF        :  9m24.65s CPU     9m54.35s WALL

 
   This run was terminated on:  12:21:29  22Mar2018            

=------------------------------------------------------------------------------=
   JOB DONE.
=------------------------------------------------------------------------------=
