
     Program PWSCF v.5.0.2 starts on 22Mar2018 at 12:11:36 

     This program is part of the open-source Quantum ESPRESSO suite
     for quantum simulation of materials; please cite
         "P. Giannozzi et al., J. Phys.:Condens. Matter 21 395502 (2009);
          URL http://www.quantum-espresso.org", 
     in publications or presentations arising from this work. More details at
     http://www.quantum-espresso.org/quote.php

     Parallel version (MPI), running on     4 processors
     R & G space division:  proc/nbgrp/npool/nimage =       4

     Current dimensions of program PWSCF are:
     Max number of different atomic species (ntypx) = 10
     Max number of k-points (npk) =  40000
     Max angular momentum in pseudopotentials (lmaxx) =  3
     Waiting for input...
     Reading input from standard input

     Subspace diagonalization in iterative solution of the eigenvalue problem:
     a serial algorithm will be used

 
     Parallelization info
     --------------------
     sticks:   dense  smooth     PW     G-vecs:    dense   smooth      PW
     Min         256     256     78                 5240     5240     876
     Max         257     257     79                 5243     5243     879
     Sum        1027    1027    313                20965    20965    3509
 


     bravais-lattice index     =            0
     lattice parameter (alat)  =       9.6483  a.u.
     unit-cell volume          =     613.3683 (a.u.)^3
     number of atoms/cell      =            6
     number of atomic types    =            2
     number of electrons       =        94.00
     number of Kohn-Sham states=           56
     kinetic-energy cutoff     =      40.0000  Ry
     charge density cutoff     =     160.0000  Ry
     convergence threshold     =      1.0E-04
     mixing beta               =       0.7000
     number of iterations used =            8  plain     mixing
     Exchange-correlation      = SLA-PZ-NOGX-NOGC ( 1 1 0 0 0)
     EXX-fraction              =        0.00
     nstep                     =           50


     celldm(1)=   9.648295  celldm(2)=   0.000000  celldm(3)=   0.000000
     celldm(4)=   0.000000  celldm(5)=   0.000000  celldm(6)=   0.000000

     crystal axes: (cart. coord. in units of alat)
               a(1) = (   1.000000   0.000000   0.000000 )  
               a(2) = (  -0.500000   0.866025   0.000000 )  
               a(3) = (   0.000000   0.000000   0.788568 )  

     reciprocal axes: (cart. coord. in units 2 pi/alat)
               b(1) = (  1.000000  0.577350  0.000000 )  
               b(2) = (  0.000000  1.154701  0.000000 )  
               b(3) = (  0.000000  0.000000  1.268122 )  


     PseudoPot. # 1 for Yb read from file:
     /home/jld5415/pp.La/Yb.UPF
     MD5 check sum: 3e859b81cc28c53ec6aa3a2e888efcdf
     Pseudo is Norm-conserving, Zval = 24.0
     Generated in analytical, separable form
     Using radial grid of 1269 points,  6 beta functions with: 
                l(1) =   0
                l(2) =   0
                l(3) =   1
                l(4) =   1
                l(5) =   2
                l(6) =   3

     PseudoPot. # 2 for Nd read from file:
     /home/jld5415/pp.La/Nd.UPF
     MD5 check sum: c66c5b6abe7b5840ced9b1e244e3bed6
     Pseudo is Norm-conserving, Zval = 14.0
     Generated in analytical, separable form
     Using radial grid of 1257 points,  6 beta functions with: 
                l(1) =   0
                l(2) =   0
                l(3) =   1
                l(4) =   1
                l(5) =   2
                l(6) =   3

     atomic species   valence    mass     pseudopotential
        Ca            24.00    40.07800     Yb( 1.00)
        Cu            14.00    63.54600     Nd( 1.00)

     24 Sym. Ops., with inversion, found



   Cartesian axes

     site n.     atom                  positions (alat units)
         1           Ca  tau(   1) = (   0.0000000   0.0000000   0.0000000  )
         2           Cu  tau(   2) = (  -0.0000005   0.5773506   0.0000000  )
         3           Cu  tau(   3) = (   0.5000005   0.2886748   0.0000000  )
         4           Cu  tau(   4) = (   0.5000000   0.0000000   0.3942838  )
         5           Cu  tau(   5) = (   0.2500000   0.4330127   0.3942838  )
         6           Cu  tau(   6) = (  -0.2500000   0.4330127   0.3942838  )

     number of k points=   110  gaussian smearing, width (Ry)=  0.1000

     Number of k-points >= 100: set verbosity='high' to print them.

     Dense  grid:    20965 G-vectors     FFT dimensions: (  40,  40,  32)

     Largest allocated arrays     est. size (Mb)     dimensions
        Kohn-Sham Wavefunctions         0.57 Mb     (    670,   56)
        NL pseudopotentials             1.23 Mb     (    670,  120)
        Each V/rho on FFT grid          0.20 Mb     (  12800)
        Each G-vector array             0.04 Mb     (   5243)
        G-vector shells                 0.04 Mb     (   5243)
     Largest temporary arrays     est. size (Mb)     dimensions
        Each subspace H/S matrix        0.05 Mb     (  56,  56)
        Each <psi_i|beta_j> matrix      0.10 Mb     (    120,   56)
        Arrays for rho mixing           1.56 Mb     (  12800,   8)

     Initial potential from superposition of free atoms

     Starting from uniform charge
     Starting wfc are    0 randomized atomic wfcs

     total cpu time spent up to now is        4.9 secs

     Self-consistent Calculation

     iteration #  1     ecut=    40.00 Ry     beta=0.70
     CG style diagonalization
     ethr =  1.00E-02,  avg # of iterations = 18.4

     total cpu time spent up to now is      108.7 secs

     total energy              =    -582.58277117 Ry
     Harris-Foulkes estimate   =   -1209.88499531 Ry
     estimated scf accuracy    <     747.66503956 Ry

     iteration #  2     ecut=    40.00 Ry     beta=0.70
     CG style diagonalization
     c_bands:  2 eigenvalues not converged
     c_bands:  4 eigenvalues not converged
     c_bands:  4 eigenvalues not converged
     c_bands:  3 eigenvalues not converged
     c_bands:  5 eigenvalues not converged
     c_bands:  5 eigenvalues not converged
     c_bands:  4 eigenvalues not converged
     c_bands:  4 eigenvalues not converged
     c_bands:  4 eigenvalues not converged
     c_bands:  3 eigenvalues not converged
     c_bands:  4 eigenvalues not converged
     c_bands:  5 eigenvalues not converged
     c_bands:  4 eigenvalues not converged
     c_bands:  5 eigenvalues not converged
     c_bands:  5 eigenvalues not converged
     c_bands:  5 eigenvalues not converged
     c_bands:  5 eigenvalues not converged
     c_bands:  5 eigenvalues not converged
     c_bands:  5 eigenvalues not converged
     c_bands:  5 eigenvalues not converged
     c_bands:  5 eigenvalues not converged
     c_bands:  4 eigenvalues not converged
     c_bands:  5 eigenvalues not converged
     c_bands:  3 eigenvalues not converged
     c_bands:  4 eigenvalues not converged
     c_bands:  5 eigenvalues not converged
     c_bands:  5 eigenvalues not converged
     c_bands:  5 eigenvalues not converged
     c_bands:  5 eigenvalues not converged
     c_bands:  2 eigenvalues not converged
     c_bands:  4 eigenvalues not converged
     c_bands:  5 eigenvalues not converged
     c_bands:  2 eigenvalues not converged
     c_bands:  4 eigenvalues not converged
     c_bands:  4 eigenvalues not converged
     c_bands:  2 eigenvalues not converged
     c_bands:  5 eigenvalues not converged
     c_bands:  5 eigenvalues not converged
     c_bands:  5 eigenvalues not converged
     c_bands:  2 eigenvalues not converged
     c_bands:  3 eigenvalues not converged
     c_bands:  5 eigenvalues not converged
     c_bands:  4 eigenvalues not converged
     c_bands:  4 eigenvalues not converged
     c_bands:  4 eigenvalues not converged
     c_bands:  5 eigenvalues not converged
     c_bands:  3 eigenvalues not converged
     c_bands:  4 eigenvalues not converged
     c_bands:  2 eigenvalues not converged
     c_bands:  3 eigenvalues not converged
     c_bands:  4 eigenvalues not converged
     c_bands:  5 eigenvalues not converged
     ethr =  1.00E-02,  avg # of iterations = 12.7

     total cpu time spent up to now is      182.0 secs

     total energy              =    -900.48799417 Ry
     Harris-Foulkes estimate   =   -1320.31952144 Ry
     estimated scf accuracy    <     750.63187825 Ry

     iteration #  3     ecut=    40.00 Ry     beta=0.70
     CG style diagonalization
     c_bands:  1 eigenvalues not converged
     c_bands:  1 eigenvalues not converged
     c_bands:  1 eigenvalues not converged
     c_bands:  1 eigenvalues not converged
     c_bands:  1 eigenvalues not converged
     c_bands:  1 eigenvalues not converged
     c_bands:  1 eigenvalues not converged
     c_bands:  1 eigenvalues not converged
     c_bands:  1 eigenvalues not converged
     ethr =  1.00E-02,  avg # of iterations =  9.3

     total cpu time spent up to now is      236.7 secs

     total energy              =    -954.48248628 Ry
     Harris-Foulkes estimate   =    -969.13979951 Ry
     estimated scf accuracy    <      27.19727803 Ry

     iteration #  4     ecut=    40.00 Ry     beta=0.70
     CG style diagonalization
     ethr =  1.00E-02,  avg # of iterations =  4.3

     total cpu time spent up to now is      260.9 secs

     total energy              =    -958.13936619 Ry
     Harris-Foulkes estimate   =    -961.42052387 Ry
     estimated scf accuracy    <       7.66672344 Ry

     iteration #  5     ecut=    40.00 Ry     beta=0.70
     CG style diagonalization
     ethr =  8.16E-03,  avg # of iterations =  3.4

     total cpu time spent up to now is      280.5 secs

     total energy              =    -959.18919647 Ry
     Harris-Foulkes estimate   =    -959.59413600 Ry
     estimated scf accuracy    <       0.66075440 Ry

     iteration #  6     ecut=    40.00 Ry     beta=0.70
     CG style diagonalization
     c_bands:  1 eigenvalues not converged
     c_bands:  1 eigenvalues not converged
     ethr =  7.03E-04,  avg # of iterations =  4.5

     total cpu time spent up to now is      307.9 secs

     total energy              =    -959.46634374 Ry
     Harris-Foulkes estimate   =    -959.58256741 Ry
     estimated scf accuracy    <       0.23459823 Ry

     iteration #  7     ecut=    40.00 Ry     beta=0.70
     CG style diagonalization
     c_bands:  1 eigenvalues not converged
     ethr =  2.50E-04,  avg # of iterations =  3.7

     total cpu time spent up to now is      328.3 secs

     total energy              =    -959.51554025 Ry
     Harris-Foulkes estimate   =    -959.51703135 Ry
     estimated scf accuracy    <       0.00323897 Ry

     iteration #  8     ecut=    40.00 Ry     beta=0.70
     CG style diagonalization
     c_bands:  1 eigenvalues not converged
     c_bands:  1 eigenvalues not converged
     c_bands:  1 eigenvalues not converged
     c_bands:  1 eigenvalues not converged
     c_bands:  1 eigenvalues not converged
     c_bands:  1 eigenvalues not converged
     c_bands:  1 eigenvalues not converged
     c_bands:  1 eigenvalues not converged
     c_bands:  1 eigenvalues not converged
     c_bands:  2 eigenvalues not converged
     c_bands:  1 eigenvalues not converged
     c_bands:  2 eigenvalues not converged
     c_bands:  1 eigenvalues not converged
     c_bands:  1 eigenvalues not converged
     c_bands:  1 eigenvalues not converged
     c_bands:  1 eigenvalues not converged
     c_bands:  1 eigenvalues not converged
     c_bands:  1 eigenvalues not converged
     c_bands:  2 eigenvalues not converged
     c_bands:  1 eigenvalues not converged
     c_bands:  1 eigenvalues not converged
     c_bands:  1 eigenvalues not converged
     ethr =  3.45E-06,  avg # of iterations =  5.8

     total cpu time spent up to now is      361.6 secs

     total energy              =    -959.51931189 Ry
     Harris-Foulkes estimate   =    -959.51981264 Ry
     estimated scf accuracy    <       0.00100362 Ry

     iteration #  9     ecut=    40.00 Ry     beta=0.70
     CG style diagonalization
     c_bands:  1 eigenvalues not converged
     c_bands:  1 eigenvalues not converged
     c_bands:  1 eigenvalues not converged
     c_bands:  1 eigenvalues not converged
     ethr =  1.07E-06,  avg # of iterations =  3.7

     total cpu time spent up to now is      381.3 secs

     End of self-consistent calculation

     Number of k-points >= 100: set verbosity='high' to print the bands.

     the Fermi energy is    33.8797 ev

!    total energy              =    -959.51953169 Ry
     Harris-Foulkes estimate   =    -959.51953895 Ry
     estimated scf accuracy    <       0.00001076 Ry

     The total energy is the sum of the following terms:

     one-electron contribution =     -44.06533518 Ry
     hartree contribution      =     113.45149332 Ry
     xc contribution           =    -101.67615834 Ry
     ewald contribution        =    -926.96476318 Ry
     smearing contrib. (-TS)   =      -0.26476831 Ry

     convergence has been achieved in   9 iterations

     Forces acting on atoms (Ry/au):

     atom    1 type  1   force =     0.00000000    0.00000000    0.00000000
     atom    2 type  2   force =     0.00000000    0.00000000    0.00000000
     atom    3 type  2   force =     0.00000000    0.00000000    0.00000000
     atom    4 type  2   force =     0.00000000    0.00000000    0.00000000
     atom    5 type  2   force =     0.00000000    0.00000000    0.00000000
     atom    6 type  2   force =     0.00000000    0.00000000    0.00000000

     Total force =     0.000000     Total SCF correction =     0.000000


     entering subroutine stress ...

          total   stress  (Ry/bohr**3)                   (kbar)     P= 1913.56
   0.01152661   0.00000000   0.00000000       1695.62      0.00      0.00
   0.00000000   0.01152661   0.00000000          0.00   1695.62      0.00
   0.00000000   0.00000000   0.01597109          0.00      0.00   2349.43


     BFGS Geometry Optimization

     number of scf cycles    =   1
     number of bfgs steps    =   0

     enthalpy new            =    -959.5195316914 Ry

     new trust radius        =       0.5000000000 bohr
     new conv_thr            =       0.0001000000 Ry

     new unit-cell volume =    777.26073 a.u.^3 (   115.17816 Ang^3 )

CELL_PARAMETERS (alat=  9.64829493)
   1.072852820   0.000000000   0.000000000
  -0.536426410   0.929117796   0.000000000
   0.000000000   0.000000000   0.868168629

ATOMIC_POSITIONS (crystal)
Ca       0.000000000   0.000000000   0.000000000
Cu       0.333333000   0.666667000   0.000000000
Cu       0.666667000   0.333333000   0.000000000
Cu       0.500000000   0.000000000   0.500000000
Cu       0.500000000   0.500000000   0.500000000
Cu       0.000000000   0.500000000   0.500000000



     Writing output data file Prototype-La-hP6-CaCu5.save
     NEW-OLD atomic charge density approx. for the potential
     NEW k-points: (use verbosity='high' to print them)

     total cpu time spent up to now is      387.0 secs

     Self-consistent Calculation

     iteration #  1     ecut=    40.00 Ry     beta=0.70
     CG style diagonalization
     c_bands:  3 eigenvalues not converged
     c_bands:  4 eigenvalues not converged
     c_bands:  2 eigenvalues not converged
     c_bands:  2 eigenvalues not converged
     c_bands:  5 eigenvalues not converged
     c_bands:  1 eigenvalues not converged
     c_bands:  2 eigenvalues not converged
     c_bands:  3 eigenvalues not converged
     c_bands:  2 eigenvalues not converged
     c_bands:  2 eigenvalues not converged
     c_bands:  4 eigenvalues not converged
     c_bands:  5 eigenvalues not converged
     c_bands:  4 eigenvalues not converged
     c_bands:  1 eigenvalues not converged
     c_bands:  1 eigenvalues not converged
     c_bands:  1 eigenvalues not converged
     c_bands:  4 eigenvalues not converged
     c_bands:  2 eigenvalues not converged
     c_bands:  1 eigenvalues not converged
     ethr =  1.00E-06,  avg # of iterations = 19.5

     total cpu time spent up to now is      495.7 secs

     total energy              =    -957.74383029 Ry
     Harris-Foulkes estimate   =    -965.24813111 Ry
     estimated scf accuracy    <       9.70201115 Ry

     iteration #  2     ecut=    40.00 Ry     beta=0.70
     CG style diagonalization
     ethr =  1.00E-02,  avg # of iterations =  3.9

     total cpu time spent up to now is      517.3 secs

     total energy              =    -960.18176552 Ry
     Harris-Foulkes estimate   =    -960.96292582 Ry
     estimated scf accuracy    <       1.08651614 Ry

     iteration #  3     ecut=    40.00 Ry     beta=0.70
     CG style diagonalization
     ethr =  1.16E-03,  avg # of iterations =  3.8

     total cpu time spent up to now is      538.1 secs

     total energy              =    -960.52102677 Ry
     Harris-Foulkes estimate   =    -960.68733845 Ry
     estimated scf accuracy    <       0.31944268 Ry

     iteration #  4     ecut=    40.00 Ry     beta=0.70
     CG style diagonalization
     ethr =  3.40E-04,  avg # of iterations =  3.5

     total cpu time spent up to now is      559.6 secs

     total energy              =    -960.58319882 Ry
     Harris-Foulkes estimate   =    -960.60781302 Ry
     estimated scf accuracy    <       0.04901954 Ry

     iteration #  5     ecut=    40.00 Ry     beta=0.70
     CG style diagonalization
     ethr =  5.21E-05,  avg # of iterations =  3.7

     total cpu time spent up to now is      581.0 secs

     total energy              =    -960.59590917 Ry
     Harris-Foulkes estimate   =    -960.60256621 Ry
     estimated scf accuracy    <       0.01695017 Ry

     iteration #  6     ecut=    40.00 Ry     beta=0.70
     CG style diagonalization
     ethr =  1.80E-05,  avg # of iterations =  3.4

     total cpu time spent up to now is      599.3 secs

     total energy              =    -960.59918105 Ry
     Harris-Foulkes estimate   =    -960.59930954 Ry
     estimated scf accuracy    <       0.00029790 Ry

     iteration #  7     ecut=    40.00 Ry     beta=0.70
     CG style diagonalization
     c_bands:  1 eigenvalues not converged
     ethr =  3.17E-07,  avg # of iterations =  4.8

     total cpu time spent up to now is      628.9 secs

     total energy              =    -960.59936509 Ry
     Harris-Foulkes estimate   =    -960.59939760 Ry
     estimated scf accuracy    <       0.00010004 Ry

     iteration #  8     ecut=    40.00 Ry     beta=0.70
     CG style diagonalization
     ethr =  1.06E-07,  avg # of iterations =  3.2

     total cpu time spent up to now is      647.3 secs

     End of self-consistent calculation

     Number of k-points >= 100: set verbosity='high' to print the bands.

     the Fermi energy is    26.1389 ev

!    total energy              =    -960.59936147 Ry
     Harris-Foulkes estimate   =    -960.59937564 Ry
     estimated scf accuracy    <       0.00001532 Ry

     The total energy is the sum of the following terms:

     one-electron contribution =    -141.09768823 Ry
     hartree contribution      =     136.38783388 Ry
     xc contribution           =     -98.86494746 Ry
     ewald contribution        =    -856.69619374 Ry
     smearing contrib. (-TS)   =      -0.32836592 Ry

     convergence has been achieved in   8 iterations

     Forces acting on atoms (Ry/au):

     atom    1 type  1   force =     0.00000000    0.00000000    0.00000000
     atom    2 type  2   force =     0.00000000    0.00000000    0.00000000
     atom    3 type  2   force =     0.00000000    0.00000000    0.00000000
     atom    4 type  2   force =     0.00000000    0.00000000    0.00000000
     atom    5 type  2   force =     0.00000000    0.00000000    0.00000000
     atom    6 type  2   force =     0.00000000    0.00000000    0.00000000

     Total force =     0.000000     Total SCF correction =     0.000000


     entering subroutine stress ...

          total   stress  (Ry/bohr**3)                   (kbar)     P=  199.92
   0.00083358   0.00000000   0.00000000        122.62      0.00      0.00
   0.00000000   0.00083358   0.00000000          0.00    122.62      0.00
   0.00000000   0.00000000   0.00241002          0.00      0.00    354.53


     number of scf cycles    =   2
     number of bfgs steps    =   1

     enthalpy old            =    -959.5195316914 Ry
     enthalpy new            =    -960.5993614691 Ry

     CASE: enthalpy_new < enthalpy_old

     small trust_radius: resetting bfgs history

     new trust radius        =       0.3359493017 bohr
     new conv_thr            =       0.0000010000 Ry

     new unit-cell volume =    858.79606 a.u.^3 (   127.26044 Ang^3 )

CELL_PARAMETERS (alat=  9.64829493)
   1.095210427   0.000000000   0.000000000
  -0.547605214   0.948480052   0.000000000
   0.000000000   0.000000000   0.920476190

ATOMIC_POSITIONS (crystal)
Ca       0.000000000   0.000000000   0.000000000
Cu       0.333333000   0.666667000   0.000000000
Cu       0.666667000   0.333333000   0.000000000
Cu       0.500000000   0.000000000   0.500000000
Cu       0.500000000   0.500000000   0.500000000
Cu       0.000000000   0.500000000   0.500000000



     Writing output data file Prototype-La-hP6-CaCu5.save
     NEW-OLD atomic charge density approx. for the potential
     NEW k-points: (use verbosity='high' to print them)

     total cpu time spent up to now is      655.2 secs

     Self-consistent Calculation

     iteration #  1     ecut=    40.00 Ry     beta=0.70
     CG style diagonalization
     c_bands:  2 eigenvalues not converged
     c_bands:  2 eigenvalues not converged
     c_bands:  2 eigenvalues not converged
     c_bands:  2 eigenvalues not converged
     c_bands:  4 eigenvalues not converged
     c_bands:  5 eigenvalues not converged
     c_bands:  3 eigenvalues not converged
     c_bands:  3 eigenvalues not converged
     c_bands:  4 eigenvalues not converged
     c_bands:  4 eigenvalues not converged
     c_bands:  4 eigenvalues not converged
     c_bands:  2 eigenvalues not converged
     c_bands:  4 eigenvalues not converged
     c_bands:  3 eigenvalues not converged
     c_bands:  4 eigenvalues not converged
     c_bands:  3 eigenvalues not converged
     c_bands:  4 eigenvalues not converged
     c_bands:  5 eigenvalues not converged
     c_bands:  5 eigenvalues not converged
     c_bands:  1 eigenvalues not converged
     c_bands:  4 eigenvalues not converged
     c_bands:  3 eigenvalues not converged
     c_bands:  3 eigenvalues not converged
     c_bands:  3 eigenvalues not converged
     c_bands:  1 eigenvalues not converged
     c_bands:  4 eigenvalues not converged
     c_bands:  4 eigenvalues not converged
     ethr =  1.00E-06,  avg # of iterations = 16.7

     total cpu time spent up to now is      747.1 secs

     total energy              =    -959.99420180 Ry
     Harris-Foulkes estimate   =    -961.53214453 Ry
     estimated scf accuracy    <       1.98736570 Ry

     iteration #  2     ecut=    40.00 Ry     beta=0.70
     CG style diagonalization
     ethr =  2.11E-03,  avg # of iterations =  3.9

     total cpu time spent up to now is      769.3 secs

     total energy              =    -960.48667029 Ry
     Harris-Foulkes estimate   =    -960.67804540 Ry
     estimated scf accuracy    <       0.26575938 Ry

     iteration #  3     ecut=    40.00 Ry     beta=0.70
     CG style diagonalization
     ethr =  2.83E-04,  avg # of iterations =  3.8

     total cpu time spent up to now is      793.2 secs

     total energy              =    -960.56680238 Ry
     Harris-Foulkes estimate   =    -960.61096084 Ry
     estimated scf accuracy    <       0.08662691 Ry

     iteration #  4     ecut=    40.00 Ry     beta=0.70
     CG style diagonalization
     ethr =  9.22E-05,  avg # of iterations =  3.5

     total cpu time spent up to now is      813.2 secs

     total energy              =    -960.58408899 Ry
     Harris-Foulkes estimate   =    -960.58816133 Ry
     estimated scf accuracy    <       0.00761622 Ry

     iteration #  5     ecut=    40.00 Ry     beta=0.70
     CG style diagonalization
     ethr =  8.10E-06,  avg # of iterations =  4.1

     total cpu time spent up to now is      835.8 secs

     total energy              =    -960.58591119 Ry
     Harris-Foulkes estimate   =    -960.58846227 Ry
     estimated scf accuracy    <       0.00744180 Ry

     iteration #  6     ecut=    40.00 Ry     beta=0.70
     CG style diagonalization
     ethr =  7.92E-06,  avg # of iterations =  3.3

     total cpu time spent up to now is      854.2 secs

     total energy              =    -960.58719140 Ry
     Harris-Foulkes estimate   =    -960.58724883 Ry
     estimated scf accuracy    <       0.00014791 Ry

     iteration #  7     ecut=    40.00 Ry     beta=0.70
     CG style diagonalization
     c_bands:  1 eigenvalues not converged
     c_bands:  1 eigenvalues not converged
     ethr =  1.57E-07,  avg # of iterations =  4.4

     total cpu time spent up to now is      884.1 secs

     total energy              =    -960.58725534 Ry
     Harris-Foulkes estimate   =    -960.58726561 Ry
     estimated scf accuracy    <       0.00003848 Ry

     iteration #  8     ecut=    40.00 Ry     beta=0.70
     CG style diagonalization
     c_bands:  1 eigenvalues not converged
     ethr =  4.09E-08,  avg # of iterations =  3.2

     total cpu time spent up to now is      907.6 secs

     total energy              =    -960.58725730 Ry
     Harris-Foulkes estimate   =    -960.58725948 Ry
     estimated scf accuracy    <       0.00000573 Ry

     iteration #  9     ecut=    40.00 Ry     beta=0.70
     CG style diagonalization
     ethr =  6.09E-09,  avg # of iterations =  4.1

     total cpu time spent up to now is      934.0 secs

     End of self-consistent calculation

     Number of k-points >= 100: set verbosity='high' to print the bands.

     the Fermi energy is    23.2924 ev

!    total energy              =    -960.58725905 Ry
     Harris-Foulkes estimate   =    -960.58725982 Ry
     estimated scf accuracy    <       0.00000084 Ry

     The total energy is the sum of the following terms:

     one-electron contribution =    -180.36880006 Ry
     hartree contribution      =     146.58751985 Ry
     xc contribution           =     -97.82303868 Ry
     ewald contribution        =    -828.62475104 Ry
     smearing contrib. (-TS)   =      -0.35818912 Ry

     convergence has been achieved in   9 iterations

     Forces acting on atoms (Ry/au):

     atom    1 type  1   force =     0.00000000    0.00000000    0.00000000
     atom    2 type  2   force =     0.00000000    0.00000000    0.00000000
     atom    3 type  2   force =     0.00000000    0.00000000    0.00000000
     atom    4 type  2   force =     0.00000000    0.00000000    0.00000000
     atom    5 type  2   force =     0.00000000    0.00000000    0.00000000
     atom    6 type  2   force =     0.00000000    0.00000000    0.00000000

     Total force =     0.000000     Total SCF correction =     0.000000


     entering subroutine stress ...

          total   stress  (Ry/bohr**3)                   (kbar)     P= -276.82
  -0.00187566   0.00000000   0.00000000       -275.92      0.00      0.00
   0.00000000  -0.00187566   0.00000000          0.00   -275.92      0.00
   0.00000000   0.00000000  -0.00189400          0.00      0.00   -278.62


     number of scf cycles    =   3
     number of bfgs steps    =   2

     enthalpy old            =    -960.5993614691 Ry
     enthalpy new            =    -960.5872590543 Ry

     CASE: enthalpy_new > enthalpy_old

     new trust radius        =       0.1532694939 bohr

     trust_radius < trust_radius_min

     resetting bfgs history

     Message from routine bfgs:
     history already reset at previous step: stopping
     new conv_thr            =       0.0000010000 Ry

     new unit-cell volume =    857.65212 a.u.^3 (   127.09093 Ang^3 )

CELL_PARAMETERS (alat=  9.64829493)
   1.093939920   0.000000000   0.000000000
  -0.546969960   0.947379761   0.000000000
   0.000000000   0.000000000   0.921386574

ATOMIC_POSITIONS (crystal)
Ca       0.000000000   0.000000000   0.000000000
Cu       0.333333000   0.666667000   0.000000000
Cu       0.666667000   0.333333000   0.000000000
Cu       0.500000000   0.000000000   0.500000000
Cu       0.500000000   0.500000000   0.500000000
Cu       0.000000000   0.500000000   0.500000000



     Writing output data file Prototype-La-hP6-CaCu5.save
     NEW-OLD atomic charge density approx. for the potential
     NEW k-points: (use verbosity='high' to print them)

     total cpu time spent up to now is      942.0 secs

     Self-consistent Calculation

     iteration #  1     ecut=    40.00 Ry     beta=0.70
     CG style diagonalization
     ethr =  1.00E-06,  avg # of iterations =  4.4

     total cpu time spent up to now is      969.4 secs

     total energy              =    -960.58907697 Ry
     Harris-Foulkes estimate   =    -960.58981657 Ry
     estimated scf accuracy    <       0.00102814 Ry

     iteration #  2     ecut=    40.00 Ry     beta=0.70
     CG style diagonalization
     ethr =  1.09E-06,  avg # of iterations =  3.9

     total cpu time spent up to now is      995.4 secs

     total energy              =    -960.58930339 Ry
     Harris-Foulkes estimate   =    -960.58937311 Ry
     estimated scf accuracy    <       0.00010144 Ry

     iteration #  3     ecut=    40.00 Ry     beta=0.70
     CG style diagonalization
     ethr =  1.08E-07,  avg # of iterations =  3.7

     total cpu time spent up to now is     1018.9 secs

     total energy              =    -960.58933228 Ry
     Harris-Foulkes estimate   =    -960.58935658 Ry
     estimated scf accuracy    <       0.00004857 Ry

     iteration #  4     ecut=    40.00 Ry     beta=0.70
     CG style diagonalization
     ethr =  5.17E-08,  avg # of iterations =  3.6

     total cpu time spent up to now is     1041.3 secs

     total energy              =    -960.58934392 Ry
     Harris-Foulkes estimate   =    -960.58934467 Ry
     estimated scf accuracy    <       0.00000133 Ry

     iteration #  5     ecut=    40.00 Ry     beta=0.70
     CG style diagonalization
     ethr =  1.41E-09,  avg # of iterations =  4.5

     total cpu time spent up to now is     1069.7 secs

     total energy              =    -960.58934432 Ry
     Harris-Foulkes estimate   =    -960.58934510 Ry
     estimated scf accuracy    <       0.00000233 Ry

     iteration #  6     ecut=    40.00 Ry     beta=0.70
     CG style diagonalization
     ethr =  1.41E-09,  avg # of iterations =  3.5

     total cpu time spent up to now is     1090.0 secs

     End of self-consistent calculation

     Number of k-points >= 100: set verbosity='high' to print the bands.

     the Fermi energy is    23.3269 ev

!    total energy              =    -960.58934468 Ry
     Harris-Foulkes estimate   =    -960.58934475 Ry
     estimated scf accuracy    <       0.00000008 Ry

     The total energy is the sum of the following terms:

     one-electron contribution =    -179.87352283 Ry
     hartree contribution      =     146.45888171 Ry
     xc contribution           =     -97.83434053 Ry
     ewald contribution        =    -828.98310845 Ry
     smearing contrib. (-TS)   =      -0.35725458 Ry

     convergence has been achieved in   6 iterations

     Forces acting on atoms (Ry/au):

     atom    1 type  1   force =     0.00000000    0.00000000    0.00000000
     atom    2 type  2   force =     0.00000000    0.00000000    0.00000000
     atom    3 type  2   force =     0.00000000    0.00000000    0.00000000
     atom    4 type  2   force =     0.00000000    0.00000000    0.00000000
     atom    5 type  2   force =     0.00000000    0.00000000    0.00000000
     atom    6 type  2   force =     0.00000000    0.00000000    0.00000000

     Total force =     0.000000     Total SCF correction =     0.000000


     entering subroutine stress ...

          total   stress  (Ry/bohr**3)                   (kbar)     P= -272.75
  -0.00183027   0.00000000   0.00000000       -269.24      0.00      0.00
   0.00000000  -0.00183027   0.00000000          0.00   -269.24      0.00
   0.00000000   0.00000000  -0.00190172          0.00      0.00   -279.75


     The maximum number of steps has been reached.

     End of BFGS Geometry Optimization
Begin final coordinates
     new unit-cell volume =    857.65212 a.u.^3 (   127.09093 Ang^3 )

CELL_PARAMETERS (alat=  9.64829493)
   1.093939920   0.000000000   0.000000000
  -0.546969960   0.947379761   0.000000000
   0.000000000   0.000000000   0.921386574

ATOMIC_POSITIONS (crystal)
Ca       0.000000000   0.000000000   0.000000000
Cu       0.333333000   0.666667000   0.000000000
Cu       0.666667000   0.333333000   0.000000000
Cu       0.500000000   0.000000000   0.500000000
Cu       0.500000000   0.500000000   0.500000000
Cu       0.000000000   0.500000000   0.500000000
End final coordinates



     A final scf calculation at the relaxed structure.
     The G-vectors are recalculated for the final unit cell
     Results may differ from those at the preceding step.
 
     Parallelization info
     --------------------
     sticks:   dense  smooth     PW     G-vecs:    dense   smooth      PW
     Min         309     309     91                 7315     7315    1182
     Max         310     310     92                 7318     7318    1183
     Sum        1237    1237    367                29267    29267    4729
 


     bravais-lattice index     =            0
     lattice parameter (alat)  =       9.6483  a.u.
     unit-cell volume          =     857.6521 (a.u.)^3
     number of atoms/cell      =            6
     number of atomic types    =            2
     number of electrons       =        94.00
     number of Kohn-Sham states=           56
     kinetic-energy cutoff     =      40.0000  Ry
     charge density cutoff     =     160.0000  Ry
     convergence threshold     =      1.0E-06
     mixing beta               =       0.7000
     number of iterations used =            8  plain     mixing
     Exchange-correlation      = SLA-PZ-NOGX-NOGC ( 1 1 0 0 0)
     EXX-fraction              =        0.00

     celldm(1)=   9.648295  celldm(2)=   0.000000  celldm(3)=   0.000000
     celldm(4)=   0.000000  celldm(5)=   0.000000  celldm(6)=   0.000000

     crystal axes: (cart. coord. in units of alat)
               a(1) = (   1.093940   0.000000   0.000000 )  
               a(2) = (  -0.546970   0.947380   0.000000 )  
               a(3) = (   0.000000   0.000000   0.921387 )  

     reciprocal axes: (cart. coord. in units 2 pi/alat)
               b(1) = (  0.914127  0.527771  0.000000 )  
               b(2) = (  0.000000  1.055543  0.000000 )  
               b(3) = (  0.000000  0.000000  1.085321 )  


     PseudoPot. # 1 for Yb read from file:
     /home/jld5415/pp.La/Yb.UPF
     MD5 check sum: 3e859b81cc28c53ec6aa3a2e888efcdf
     Pseudo is Norm-conserving, Zval = 24.0
     Generated in analytical, separable form
     Using radial grid of 1269 points,  6 beta functions with: 
                l(1) =   0
                l(2) =   0
                l(3) =   1
                l(4) =   1
                l(5) =   2
                l(6) =   3

     PseudoPot. # 2 for Nd read from file:
     /home/jld5415/pp.La/Nd.UPF
     MD5 check sum: c66c5b6abe7b5840ced9b1e244e3bed6
     Pseudo is Norm-conserving, Zval = 14.0
     Generated in analytical, separable form
     Using radial grid of 1257 points,  6 beta functions with: 
                l(1) =   0
                l(2) =   0
                l(3) =   1
                l(4) =   1
                l(5) =   2
                l(6) =   3

     atomic species   valence    mass     pseudopotential
        Ca            24.00    40.07800     Yb( 1.00)
        Cu            14.00    63.54600     Nd( 1.00)

     24 Sym. Ops., with inversion, found



   Cartesian axes

     site n.     atom                  positions (alat units)
         1           Ca  tau(   1) = (   0.0000000   0.0000000   0.0000000  )
         2           Cu  tau(   2) = (  -0.0000005   0.6315868   0.0000000  )
         3           Cu  tau(   3) = (   0.5469705   0.3157929   0.0000000  )
         4           Cu  tau(   4) = (   0.5469700   0.0000000   0.4606933  )
         5           Cu  tau(   5) = (   0.2734850   0.4736899   0.4606933  )
         6           Cu  tau(   6) = (  -0.2734850   0.4736899   0.4606933  )

     number of k points=   110  gaussian smearing, width (Ry)=  0.1000

     Number of k-points >= 100: set verbosity='high' to print them.

     Dense  grid:    29267 G-vectors     FFT dimensions: (  45,  45,  36)

     Largest allocated arrays     est. size (Mb)     dimensions
        Kohn-Sham Wavefunctions         0.80 Mb     (    931,   56)
        NL pseudopotentials             1.70 Mb     (    931,  120)
        Each V/rho on FFT grid          0.28 Mb     (  18225)
        Each G-vector array             0.06 Mb     (   7317)
        G-vector shells                 0.01 Mb     (   1295)
     Largest temporary arrays     est. size (Mb)     dimensions
        Each subspace H/S matrix        0.05 Mb     (  56,  56)
        Each <psi_i|beta_j> matrix      0.10 Mb     (    120,   56)
        Arrays for rho mixing           2.22 Mb     (  18225,   8)

     Initial potential from superposition of free atoms

     Starting from uniform charge
     Starting wfc are    0 randomized atomic wfcs

     Writing output data file Prototype-La-hP6-CaCu5.save

     total cpu time spent up to now is     1102.4 secs

     Self-consistent Calculation

     iteration #  1     ecut=    40.00 Ry     beta=0.70
     CG style diagonalization
     c_bands:  4 eigenvalues not converged
     c_bands:  3 eigenvalues not converged
     c_bands:  1 eigenvalues not converged
     c_bands:  5 eigenvalues not converged
     c_bands:  5 eigenvalues not converged
     c_bands:  4 eigenvalues not converged
     c_bands:  5 eigenvalues not converged
     c_bands:  3 eigenvalues not converged
     c_bands:  2 eigenvalues not converged
     c_bands:  5 eigenvalues not converged
     c_bands:  4 eigenvalues not converged
     c_bands:  2 eigenvalues not converged
     c_bands:  4 eigenvalues not converged
     c_bands:  4 eigenvalues not converged
     c_bands:  5 eigenvalues not converged
     c_bands:  5 eigenvalues not converged
     c_bands:  3 eigenvalues not converged
     c_bands:  5 eigenvalues not converged
     c_bands:  4 eigenvalues not converged
     c_bands:  4 eigenvalues not converged
     c_bands:  4 eigenvalues not converged
     c_bands:  4 eigenvalues not converged
     c_bands:  3 eigenvalues not converged
     c_bands:  4 eigenvalues not converged
     c_bands:  5 eigenvalues not converged
     c_bands:  4 eigenvalues not converged
     c_bands:  5 eigenvalues not converged
     c_bands:  5 eigenvalues not converged
     c_bands:  5 eigenvalues not converged
     c_bands:  5 eigenvalues not converged
     c_bands:  3 eigenvalues not converged
     c_bands:  5 eigenvalues not converged
     c_bands:  4 eigenvalues not converged
     c_bands:  4 eigenvalues not converged
     c_bands:  4 eigenvalues not converged
     c_bands:  4 eigenvalues not converged
     c_bands:  4 eigenvalues not converged
     c_bands:  4 eigenvalues not converged
     c_bands:  3 eigenvalues not converged
     c_bands:  5 eigenvalues not converged
     c_bands:  4 eigenvalues not converged
     c_bands:  1 eigenvalues not converged
     c_bands:  5 eigenvalues not converged
     c_bands:  4 eigenvalues not converged
     c_bands:  4 eigenvalues not converged
     c_bands:  4 eigenvalues not converged
     c_bands:  3 eigenvalues not converged
     c_bands:  5 eigenvalues not converged
     c_bands:  5 eigenvalues not converged
     c_bands:  4 eigenvalues not converged
     c_bands:  4 eigenvalues not converged
     c_bands:  5 eigenvalues not converged
     c_bands:  5 eigenvalues not converged
     c_bands:  5 eigenvalues not converged
     c_bands:  4 eigenvalues not converged
     c_bands:  4 eigenvalues not converged
     c_bands:  4 eigenvalues not converged
     c_bands:  4 eigenvalues not converged
     c_bands:  5 eigenvalues not converged
     c_bands:  5 eigenvalues not converged
     c_bands:  4 eigenvalues not converged
     c_bands:  4 eigenvalues not converged
     c_bands:  4 eigenvalues not converged
     c_bands:  4 eigenvalues not converged
     c_bands:  5 eigenvalues not converged
     c_bands:  5 eigenvalues not converged
     c_bands:  4 eigenvalues not converged
     c_bands:  5 eigenvalues not converged
     c_bands:  4 eigenvalues not converged
     c_bands:  4 eigenvalues not converged
     c_bands:  5 eigenvalues not converged
     c_bands:  4 eigenvalues not converged
     c_bands:  5 eigenvalues not converged
     c_bands:  4 eigenvalues not converged
     c_bands:  5 eigenvalues not converged
     c_bands:  4 eigenvalues not converged
     c_bands:  5 eigenvalues not converged
     c_bands:  3 eigenvalues not converged
     c_bands:  4 eigenvalues not converged
     c_bands:  5 eigenvalues not converged
     c_bands:  4 eigenvalues not converged
     c_bands:  5 eigenvalues not converged
     c_bands:  5 eigenvalues not converged
     c_bands:  5 eigenvalues not converged
     c_bands:  4 eigenvalues not converged
     c_bands:  4 eigenvalues not converged
     c_bands:  3 eigenvalues not converged
     c_bands:  5 eigenvalues not converged
     c_bands:  5 eigenvalues not converged
     c_bands:  4 eigenvalues not converged
     c_bands:  4 eigenvalues not converged
     c_bands:  4 eigenvalues not converged
     c_bands:  4 eigenvalues not converged
     c_bands:  4 eigenvalues not converged
     c_bands:  4 eigenvalues not converged
     c_bands:  5 eigenvalues not converged
     c_bands:  4 eigenvalues not converged
     c_bands:  3 eigenvalues not converged
     c_bands:  3 eigenvalues not converged
     c_bands:  5 eigenvalues not converged
     c_bands:  5 eigenvalues not converged
     c_bands:  4 eigenvalues not converged
     c_bands:  5 eigenvalues not converged
     c_bands:  3 eigenvalues not converged
     c_bands:  5 eigenvalues not converged
     c_bands:  3 eigenvalues not converged
     c_bands:  4 eigenvalues not converged
     c_bands:  4 eigenvalues not converged
     c_bands:  4 eigenvalues not converged
     ethr =  1.00E-06,  avg # of iterations = 49.7

     total cpu time spent up to now is     1572.3 secs

     total energy              =    -420.66210796 Ry
     Harris-Foulkes estimate   =   -1291.19331133 Ry
     estimated scf accuracy    <    1029.63723659 Ry

     iteration #  2     ecut=    40.00 Ry     beta=0.70
     CG style diagonalization
     c_bands:  4 eigenvalues not converged
     c_bands:  4 eigenvalues not converged
     c_bands:  5 eigenvalues not converged
     c_bands:  5 eigenvalues not converged
     c_bands:  5 eigenvalues not converged
     c_bands:  4 eigenvalues not converged
     c_bands:  4 eigenvalues not converged
     c_bands:  5 eigenvalues not converged
     c_bands:  4 eigenvalues not converged
     c_bands:  5 eigenvalues not converged
     ethr =  1.00E-02,  avg # of iterations = 15.1

     total cpu time spent up to now is     1751.6 secs

     total energy              =    -942.57192826 Ry
     Harris-Foulkes estimate   =   -1479.12307140 Ry
     estimated scf accuracy    <     938.85504108 Ry

     iteration #  3     ecut=    40.00 Ry     beta=0.70
     CG style diagonalization
     c_bands:  1 eigenvalues not converged
     ethr =  1.00E-02,  avg # of iterations =  8.0

     total cpu time spent up to now is     1842.0 secs

     total energy              =    -923.97406725 Ry
     Harris-Foulkes estimate   =    -995.03611323 Ry
     estimated scf accuracy    <     145.09276138 Ry

     iteration #  4     ecut=    40.00 Ry     beta=0.70
     CG style diagonalization
     c_bands:  1 eigenvalues not converged
     c_bands:  1 eigenvalues not converged
     c_bands:  1 eigenvalues not converged
     c_bands:  1 eigenvalues not converged
     ethr =  1.00E-02,  avg # of iterations =  8.6

     total cpu time spent up to now is     1938.0 secs

     total energy              =    -957.51678667 Ry
     Harris-Foulkes estimate   =    -971.26795065 Ry
     estimated scf accuracy    <      35.40492792 Ry

     iteration #  5     ecut=    40.00 Ry     beta=0.70
     CG style diagonalization
     ethr =  1.00E-02,  avg # of iterations =  4.6

     total cpu time spent up to now is     1987.2 secs

     total energy              =    -960.54764130 Ry
     Harris-Foulkes estimate   =    -963.17007104 Ry
     estimated scf accuracy    <       6.02384485 Ry

     iteration #  6     ecut=    40.00 Ry     beta=0.70
     CG style diagonalization
     ethr =  6.41E-03,  avg # of iterations =  3.7

     total cpu time spent up to now is     2026.5 secs

     total energy              =    -961.31018019 Ry
     Harris-Foulkes estimate   =    -961.47245065 Ry
     estimated scf accuracy    <       0.38663914 Ry

     iteration #  7     ecut=    40.00 Ry     beta=0.70
     CG style diagonalization
     c_bands:  1 eigenvalues not converged
     c_bands:  1 eigenvalues not converged
     c_bands:  1 eigenvalues not converged
     c_bands:  1 eigenvalues not converged
     c_bands:  1 eigenvalues not converged
     c_bands:  1 eigenvalues not converged
     c_bands:  2 eigenvalues not converged
     c_bands:  1 eigenvalues not converged
     c_bands:  1 eigenvalues not converged
     c_bands:  2 eigenvalues not converged
     c_bands:  1 eigenvalues not converged
     c_bands:  2 eigenvalues not converged
     c_bands:  1 eigenvalues not converged
     c_bands:  1 eigenvalues not converged
     c_bands:  1 eigenvalues not converged
     c_bands:  2 eigenvalues not converged
     c_bands:  1 eigenvalues not converged
     c_bands:  2 eigenvalues not converged
     c_bands:  1 eigenvalues not converged
     c_bands:  2 eigenvalues not converged
     c_bands:  1 eigenvalues not converged
     c_bands:  1 eigenvalues not converged
     c_bands:  1 eigenvalues not converged
     c_bands:  1 eigenvalues not converged
     c_bands:  1 eigenvalues not converged
     c_bands:  1 eigenvalues not converged
     c_bands:  2 eigenvalues not converged
     c_bands:  1 eigenvalues not converged
     c_bands:  2 eigenvalues not converged
     c_bands:  1 eigenvalues not converged
     c_bands:  1 eigenvalues not converged
     c_bands:  1 eigenvalues not converged
     c_bands:  1 eigenvalues not converged
     c_bands:  1 eigenvalues not converged
     c_bands:  1 eigenvalues not converged
     c_bands:  1 eigenvalues not converged
     c_bands:  1 eigenvalues not converged
     c_bands:  1 eigenvalues not converged
     c_bands:  1 eigenvalues not converged
     c_bands:  2 eigenvalues not converged
     ethr =  4.11E-04,  avg # of iterations =  5.1

     total cpu time spent up to now is     2079.9 secs

     total energy              =    -961.47607595 Ry
     Harris-Foulkes estimate   =    -961.49926604 Ry
     estimated scf accuracy    <       0.03213381 Ry

     iteration #  8     ecut=    40.00 Ry     beta=0.70
     CG style diagonalization
     c_bands:  1 eigenvalues not converged
     c_bands:  1 eigenvalues not converged
     c_bands:  1 eigenvalues not converged
     c_bands:  1 eigenvalues not converged
     c_bands:  1 eigenvalues not converged
     c_bands:  1 eigenvalues not converged
     c_bands:  1 eigenvalues not converged
     c_bands:  1 eigenvalues not converged
     c_bands:  1 eigenvalues not converged
     c_bands:  2 eigenvalues not converged
     c_bands:  1 eigenvalues not converged
     c_bands:  1 eigenvalues not converged
     c_bands:  1 eigenvalues not converged
     c_bands:  1 eigenvalues not converged
     c_bands:  1 eigenvalues not converged
     c_bands:  2 eigenvalues not converged
     c_bands:  1 eigenvalues not converged
     c_bands:  1 eigenvalues not converged
     c_bands:  2 eigenvalues not converged
     c_bands:  1 eigenvalues not converged
     c_bands:  1 eigenvalues not converged
     c_bands:  2 eigenvalues not converged
     c_bands:  1 eigenvalues not converged
     c_bands:  1 eigenvalues not converged
     c_bands:  2 eigenvalues not converged
     ethr =  3.42E-05,  avg # of iterations =  5.0

     total cpu time spent up to now is     2124.0 secs

     total energy              =    -961.48396145 Ry
     Harris-Foulkes estimate   =    -961.51508564 Ry
     estimated scf accuracy    <       0.06146940 Ry

     iteration #  9     ecut=    40.00 Ry     beta=0.70
     CG style diagonalization
     c_bands:  1 eigenvalues not converged
     ethr =  3.42E-05,  avg # of iterations =  3.8

     total cpu time spent up to now is     2156.5 secs

     total energy              =    -961.49892723 Ry
     Harris-Foulkes estimate   =    -961.49928336 Ry
     estimated scf accuracy    <       0.00096683 Ry

     iteration # 10     ecut=    40.00 Ry     beta=0.70
     CG style diagonalization
     c_bands:  1 eigenvalues not converged
     c_bands:  1 eigenvalues not converged
     c_bands:  1 eigenvalues not converged
     c_bands:  1 eigenvalues not converged
     c_bands:  1 eigenvalues not converged
     c_bands:  1 eigenvalues not converged
     c_bands:  1 eigenvalues not converged
     c_bands:  1 eigenvalues not converged
     c_bands:  1 eigenvalues not converged
     c_bands:  1 eigenvalues not converged
     c_bands:  1 eigenvalues not converged
     c_bands:  2 eigenvalues not converged
     ethr =  1.03E-06,  avg # of iterations =  5.1

     total cpu time spent up to now is     2200.6 secs

     total energy              =    -961.49932527 Ry
     Harris-Foulkes estimate   =    -961.49948661 Ry
     estimated scf accuracy    <       0.00036053 Ry

     iteration # 11     ecut=    40.00 Ry     beta=0.70
     CG style diagonalization
     c_bands:  1 eigenvalues not converged
     ethr =  3.84E-07,  avg # of iterations =  3.4

     total cpu time spent up to now is     2228.1 secs

     total energy              =    -961.49937955 Ry
     Harris-Foulkes estimate   =    -961.49938846 Ry
     estimated scf accuracy    <       0.00001510 Ry

     iteration # 12     ecut=    40.00 Ry     beta=0.70
     CG style diagonalization
     c_bands:  1 eigenvalues not converged
     ethr =  1.61E-08,  avg # of iterations =  5.1

     total cpu time spent up to now is     2269.2 secs

     total energy              =    -961.49939283 Ry
     Harris-Foulkes estimate   =    -961.49939545 Ry
     estimated scf accuracy    <       0.00000684 Ry

     iteration # 13     ecut=    40.00 Ry     beta=0.70
     CG style diagonalization
     ethr =  7.27E-09,  avg # of iterations =  3.4

     total cpu time spent up to now is     2296.9 secs

     End of self-consistent calculation

     Number of k-points >= 100: set verbosity='high' to print the bands.

     the Fermi energy is    23.2956 ev

!    total energy              =    -961.49939316 Ry
     Harris-Foulkes estimate   =    -961.49939376 Ry
     estimated scf accuracy    <       0.00000065 Ry

     The total energy is the sum of the following terms:

     one-electron contribution =    -181.34659512 Ry
     hartree contribution      =     147.13320792 Ry
     xc contribution           =     -97.94586853 Ry
     ewald contribution        =    -828.98310582 Ry
     smearing contrib. (-TS)   =      -0.35703162 Ry

     convergence has been achieved in  13 iterations

     Forces acting on atoms (Ry/au):

     atom    1 type  1   force =     0.00000000    0.00000000    0.00000000
     atom    2 type  2   force =     0.00000000    0.00000000    0.00000000
     atom    3 type  2   force =     0.00000000    0.00000000    0.00000000
     atom    4 type  2   force =     0.00000000    0.00000000    0.00000000
     atom    5 type  2   force =     0.00000000    0.00000000    0.00000000
     atom    6 type  2   force =     0.00000000    0.00000000    0.00000000

     Total force =     0.000000     Total SCF correction =     0.000000


     entering subroutine stress ...

          total   stress  (Ry/bohr**3)                   (kbar)     P=  147.42
   0.00063194   0.00000000   0.00000000         92.96      0.00      0.00
   0.00000000   0.00063194   0.00000000          0.00     92.96      0.00
   0.00000000   0.00000000   0.00174247          0.00      0.00    256.33


     Writing output data file Prototype-La-hP6-CaCu5.save
 
     init_run     :      9.14s CPU     11.72s WALL (       2 calls)
     electrons    :   1819.46s CPU   2257.92s WALL (       5 calls)
     update_pot   :      1.40s CPU      1.47s WALL (       3 calls)
     forces       :      7.18s CPU      7.36s WALL (       5 calls)
     stress       :     18.07s CPU     18.46s WALL (       5 calls)

     Called by init_run:
     wfcinit      :      8.54s CPU     11.08s WALL (       2 calls)
     potinit      :      0.25s CPU      0.25s WALL (       2 calls)

     Called by electrons:
     c_bands      :   1755.13s CPU   2126.02s WALL (      45 calls)
     sum_band     :     63.90s CPU     82.01s WALL (      45 calls)
     v_of_rho     :      0.06s CPU      0.07s WALL (      50 calls)
     mix_rho      :      0.06s CPU      0.08s WALL (      45 calls)

     Called by c_bands:
     init_us_2    :      5.71s CPU      7.45s WALL (   11220 calls)
     ccgdiagg     :   1570.25s CPU   1876.71s WALL (    5638 calls)
     wfcrot       :    187.51s CPU    247.96s WALL (    5748 calls)

     Called by *cgdiagg:
     h_psi        :   1283.80s CPU   1611.40s WALL ( 1547411 calls)
     cdiaghg      :      7.55s CPU      8.13s WALL (    5748 calls)

     Called by h_psi:
     add_vuspsi   :    112.16s CPU    152.59s WALL ( 1547411 calls)

     General routines
     calbec       :    370.36s CPU    403.75s WALL ( 3090174 calls)
     fft          :      0.08s CPU      0.10s WALL (     223 calls)
     fftw         :    899.00s CPU   1114.97s WALL ( 4004302 calls)
     davcio       :      4.20s CPU     10.80s WALL (   16170 calls)
 
     Parallel routines
     fft_scatter  :    396.37s CPU    484.14s WALL ( 4004525 calls)
 
     PWSCF        : 30m56.37s CPU    38m23.58s WALL

 
   This run was terminated on:  12:50: 0  22Mar2018            

=------------------------------------------------------------------------------=
   JOB DONE.
=------------------------------------------------------------------------------=
