
     Program PWSCF v.5.0.2 starts on 22Mar2018 at 10:10:28 

     This program is part of the open-source Quantum ESPRESSO suite
     for quantum simulation of materials; please cite
         "P. Giannozzi et al., J. Phys.:Condens. Matter 21 395502 (2009);
          URL http://www.quantum-espresso.org", 
     in publications or presentations arising from this work. More details at
     http://www.quantum-espresso.org/quote.php

     Parallel version (MPI), running on     4 processors
     R & G space division:  proc/nbgrp/npool/nimage =       4

     Current dimensions of program PWSCF are:
     Max number of different atomic species (ntypx) = 10
     Max number of k-points (npk) =  40000
     Max angular momentum in pseudopotentials (lmaxx) =  3
     Waiting for input...
     Reading input from standard input

     Subspace diagonalization in iterative solution of the eigenvalue problem:
     a serial algorithm will be used

 
     Parallelization info
     --------------------
     sticks:   dense  smooth     PW     G-vecs:    dense   smooth      PW
     Min         267     267     77                11587    11587    1762
     Max         268     268     79                11596    11596    1765
     Sum        1069    1069    313                46361    46361    7055
 


     bravais-lattice index     =            0
     lattice parameter (alat)  =       9.9235  a.u.
     unit-cell volume          =    1361.0366 (a.u.)^3
     number of atoms/cell      =           12
     number of atomic types    =            2
     number of electrons       =       228.00
     number of Kohn-Sham states=          137
     kinetic-energy cutoff     =      40.0000  Ry
     charge density cutoff     =     160.0000  Ry
     convergence threshold     =      1.0E-04
     mixing beta               =       0.7000
     number of iterations used =            8  plain     mixing
     Exchange-correlation      = SLA-PZ-NOGX-NOGC ( 1 1 0 0 0)
     EXX-fraction              =        0.00
     nstep                     =           50


     celldm(1)=   9.923489  celldm(2)=   0.000000  celldm(3)=   0.000000
     celldm(4)=   0.000000  celldm(5)=   0.000000  celldm(6)=   0.000000

     crystal axes: (cart. coord. in units of alat)
               a(1) = (   1.000000   0.000000   0.000000 )  
               a(2) = (  -0.500000   0.866025   0.000000 )  
               a(3) = (   0.000000   0.000000   1.608222 )  

     reciprocal axes: (cart. coord. in units 2 pi/alat)
               b(1) = (  1.000000  0.577350  0.000000 )  
               b(2) = (  0.000000  1.154701  0.000000 )  
               b(3) = (  0.000000  0.000000  0.621805 )  


     PseudoPot. # 1 for Lu read from file:
     /home/cwx6513/pp.La/La.UPF
     MD5 check sum: 4fc038260c66a0bf25fb4835376efb80
     Pseudo is Norm-conserving, Zval = 25.0
     Generated in analytical, separable form
     Using radial grid of 1271 points,  6 beta functions with: 
                l(1) =   0
                l(2) =   0
                l(3) =   1
                l(4) =   1
                l(5) =   2
                l(6) =   3

     PseudoPot. # 2 for Sm read from file:
     /home/cwx6513/pp.La/Sm.UPF
     MD5 check sum: 5079e8b144a06bfcdbc14fb02b96ab09
     Pseudo is Norm-conserving, Zval = 16.0
     Generated in analytical, separable form
     Using radial grid of 1259 points,  6 beta functions with: 
                l(1) =   0
                l(2) =   0
                l(3) =   1
                l(4) =   1
                l(5) =   2
                l(6) =   3

     atomic species   valence    mass     pseudopotential
        Mg            25.00    24.30500     Lu( 1.00)
        Zn            16.00    65.39000     Sm( 1.00)

     24 Sym. Ops., with inversion, found (12 have fractional translation)



   Cartesian axes

     site n.     atom                  positions (alat units)
         1           Mg  tau(   1) = (  -0.0000005   0.5773506   0.1003820  )
         2           Mg  tau(   2) = (   0.5000005   0.2886748   0.9044931  )
         3           Mg  tau(   3) = (   0.5000005   0.2886748   1.5078402  )
         4           Mg  tau(   4) = (  -0.0000005   0.5773506   0.7037291  )
         5           Zn  tau(   5) = (   0.0000000   0.0000000   0.0000000  )
         6           Zn  tau(   6) = (   0.0000000   0.0000000   0.8041111  )
         7           Zn  tau(   7) = (   0.0000000   0.2950739   1.2061667  )
         8           Zn  tau(   8) = (   0.7444585   0.1475370   0.4020556  )
         9           Zn  tau(   9) = (   0.2555415   0.1475370   0.4020556  )
        10           Zn  tau(  10) = (   0.2444585   0.7184884   1.2061667  )
        11           Zn  tau(  11) = (  -0.2444585   0.7184884   1.2061667  )
        12           Zn  tau(  12) = (   0.5000000   0.5709515   0.4020556  )

     number of k points=    12  gaussian smearing, width (Ry)=  0.1000
                       cart. coord. in units 2pi/alat
        k(    1) = (   0.0000000   0.0000000   0.0000000), wk =   0.0833333
        k(    2) = (   0.0000000   0.0000000   0.1554512), wk =   0.1666667
        k(    3) = (   0.0000000   0.0000000  -0.3109023), wk =   0.0833333
        k(    4) = (   0.0000000   0.3849002   0.0000000), wk =   0.1666667
        k(    5) = (   0.0000000   0.3849002   0.1554512), wk =   0.3333333
        k(    6) = (   0.0000000   0.3849002  -0.3109023), wk =   0.1666667
        k(    7) = (  -0.5000000  -0.2886751   0.0000000), wk =   0.0833333
        k(    8) = (  -0.5000000  -0.2886751   0.1554512), wk =   0.1666667
        k(    9) = (  -0.5000000  -0.2886751  -0.3109023), wk =   0.0833333
        k(   10) = (  -0.5000000   0.0962250   0.0000000), wk =   0.1666667
        k(   11) = (  -0.5000000   0.0962250   0.1554512), wk =   0.3333333
        k(   12) = (  -0.5000000   0.0962250  -0.3109023), wk =   0.1666667

     Dense  grid:    46361 G-vectors     FFT dimensions: (  40,  40,  72)

     Largest allocated arrays     est. size (Mb)     dimensions
        Kohn-Sham Wavefunctions         3.09 Mb     (   1478,  137)
        NL pseudopotentials             5.41 Mb     (   1478,  240)
        Each V/rho on FFT grid          0.44 Mb     (  28800)
        Each G-vector array             0.09 Mb     (  11589)
        G-vector shells                 0.09 Mb     (  11589)
     Largest temporary arrays     est. size (Mb)     dimensions
        Each subspace H/S matrix        0.29 Mb     ( 137, 137)
        Each <psi_i|beta_j> matrix      0.50 Mb     (    240,  137)
        Arrays for rho mixing           3.52 Mb     (  28800,   8)

     Initial potential from superposition of free atoms

     Starting from uniform charge
     Starting wfc are    0 randomized atomic wfcs

     total cpu time spent up to now is        3.8 secs

     Self-consistent Calculation

     iteration #  1     ecut=    40.00 Ry     beta=0.70
     CG style diagonalization
     ethr =  1.00E-02,  avg # of iterations = 17.1

     total cpu time spent up to now is       87.1 secs

     total energy              =   -1824.43789367 Ry
     Harris-Foulkes estimate   =   -4006.48558046 Ry
     estimated scf accuracy    <    2605.47633106 Ry

     iteration #  2     ecut=    40.00 Ry     beta=0.70
     CG style diagonalization
     ethr =  1.00E-02,  avg # of iterations = 19.1

     total cpu time spent up to now is      180.0 secs

     total energy              =   -2460.20282952 Ry
     Harris-Foulkes estimate   =   -4228.90927071 Ry
     estimated scf accuracy    <    3365.12076893 Ry

     iteration #  3     ecut=    40.00 Ry     beta=0.70
     CG style diagonalization
     c_bands:  1 eigenvalues not converged
     c_bands:  1 eigenvalues not converged
     c_bands:  1 eigenvalues not converged
     c_bands:  1 eigenvalues not converged
     c_bands:  1 eigenvalues not converged
     c_bands:  3 eigenvalues not converged
     ethr =  1.00E-02,  avg # of iterations = 12.5

     total cpu time spent up to now is      242.7 secs

     total energy              =   -2983.54291472 Ry
     Harris-Foulkes estimate   =   -3071.70717927 Ry
     estimated scf accuracy    <     147.13543296 Ry

     iteration #  4     ecut=    40.00 Ry     beta=0.70
     CG style diagonalization
     ethr =  1.00E-02,  avg # of iterations =  6.9

     total cpu time spent up to now is      277.9 secs

     total energy              =   -3019.20134392 Ry
     Harris-Foulkes estimate   =   -3036.26098678 Ry
     estimated scf accuracy    <      49.04506334 Ry

     iteration #  5     ecut=    40.00 Ry     beta=0.70
     CG style diagonalization
     ethr =  1.00E-02,  avg # of iterations =  3.6

     total cpu time spent up to now is      294.7 secs

     total energy              =   -3023.09921540 Ry
     Harris-Foulkes estimate   =   -3026.29464426 Ry
     estimated scf accuracy    <       7.25336497 Ry

     iteration #  6     ecut=    40.00 Ry     beta=0.70
     CG style diagonalization
     ethr =  3.18E-03,  avg # of iterations =  3.5

     total cpu time spent up to now is      311.3 secs

     total energy              =   -3024.50598232 Ry
     Harris-Foulkes estimate   =   -3024.93419993 Ry
     estimated scf accuracy    <       0.93750899 Ry

     iteration #  7     ecut=    40.00 Ry     beta=0.70
     CG style diagonalization
     ethr =  4.11E-04,  avg # of iterations =  4.3

     total cpu time spent up to now is      332.3 secs

     total energy              =   -3024.74540976 Ry
     Harris-Foulkes estimate   =   -3025.01913325 Ry
     estimated scf accuracy    <       0.66803866 Ry

     iteration #  8     ecut=    40.00 Ry     beta=0.70
     CG style diagonalization
     c_bands:  1 eigenvalues not converged
     ethr =  2.93E-04,  avg # of iterations =  3.3

     total cpu time spent up to now is      347.7 secs

     total energy              =   -3024.84304147 Ry
     Harris-Foulkes estimate   =   -3024.85599857 Ry
     estimated scf accuracy    <       0.02085298 Ry

     iteration #  9     ecut=    40.00 Ry     beta=0.70
     CG style diagonalization
     c_bands:  2 eigenvalues not converged
     c_bands:  1 eigenvalues not converged
     c_bands:  2 eigenvalues not converged
     c_bands:  1 eigenvalues not converged
     c_bands:  2 eigenvalues not converged
     c_bands:  1 eigenvalues not converged
     ethr =  9.15E-06,  avg # of iterations =  5.2

     total cpu time spent up to now is      373.3 secs

     total energy              =   -3024.85266526 Ry
     Harris-Foulkes estimate   =   -3024.86422211 Ry
     estimated scf accuracy    <       0.03010797 Ry

     iteration # 10     ecut=    40.00 Ry     beta=0.70
     CG style diagonalization
     c_bands:  1 eigenvalues not converged
     ethr =  9.15E-06,  avg # of iterations =  3.4

     total cpu time spent up to now is      388.9 secs

     total energy              =   -3024.85640869 Ry
     Harris-Foulkes estimate   =   -3024.85689434 Ry
     estimated scf accuracy    <       0.00124199 Ry

     iteration # 11     ecut=    40.00 Ry     beta=0.70
     CG style diagonalization
     c_bands:  1 eigenvalues not converged
     ethr =  5.45E-07,  avg # of iterations =  4.2

     total cpu time spent up to now is      408.7 secs

     End of self-consistent calculation

          k = 0.0000 0.0000 0.0000 (  5769 PWs)   bands (ev):

  -104.5044-104.4740-104.4643-104.3760 -59.9850 -59.9835 -59.9834 -59.9701
   -59.9688 -59.9688 -59.9619 -59.9613 -59.9613 -59.9536 -59.9536 -59.9425
   -26.1503 -25.9284 -25.5505 -25.3064 -25.2558 -25.2557 -25.2539 -25.2538
    -3.9318  -3.3725  -2.7854  -2.0232  -2.0232  -1.8459  -1.8459  -1.8206
    -1.8206  -1.3043  -0.8526  -0.8526  -0.7762  -0.7762  -0.6413   0.2079
     0.2309   0.2309   0.2806   0.2820   0.4280   0.4281   0.6030   0.6030
     0.6426   0.6698   0.6698   0.6778   0.7065   0.7065   0.8189   0.8189
     0.8206   0.8206   0.8262   0.8474   0.8474   0.8970   0.8970   0.9193
     0.9193   0.9291   0.9291   0.9545  14.9630  16.3161  17.4693  19.6899
    22.0930  22.0931  22.1468  23.2365  23.3407  23.3408  23.5734  23.7692
    24.1699  24.8873  24.8873  24.9438  25.2664  25.2664  25.5229  25.5229
    26.7943  26.7944  27.1131  27.1131  27.1943  27.1945  28.8738  29.7194
    29.8442  30.2989  30.2990  30.3865  30.6600  30.7054  30.7055  30.8502
    31.1897  31.1898  31.6317  31.6385  31.6385  31.7205  31.7206  31.8125
    31.8126  32.0853  32.5799  32.5800  32.8271  33.3391  33.3392  34.7021
    34.7021  34.9839  35.5008  35.5009  36.3807  36.6483  36.6484  37.0343
    37.0343  37.0431  37.2693  37.9271  37.9937  38.3091  38.3089  38.7355
    39.2682

          k = 0.0000 0.0000 0.1555 (  5780 PWs)   bands (ev):

  -104.5088-104.5067-104.4501-104.3877 -59.9822 -59.9781 -59.9780 -59.9775
   -59.9775 -59.9765 -59.9640 -59.9616 -59.9616 -59.9561 -59.9561 -59.9453
   -26.1263 -25.9754 -25.4999 -25.3338 -25.2556 -25.2556 -25.2542 -25.2542
    -3.8842  -3.5291  -2.5465  -2.0105  -2.0105  -1.9181  -1.9181  -1.6952
    -1.6951  -1.6033  -1.1775  -1.1774  -0.4388  -0.4388  -0.3881   0.1399
     0.1400   0.1425   0.2793   0.2795   0.4527   0.4527   0.5696   0.5697
     0.6624   0.6642   0.6808   0.6808   0.7100   0.7100   0.8124   0.8124
     0.8150   0.8150   0.8412   0.8551   0.8552   0.8873   0.8873   0.9155
     0.9298   0.9298   0.9312   0.9312  15.0998  15.9736  17.8968  19.3216
    22.2350  22.2351  22.5520  22.8633  23.0202  23.0954  23.0955  23.7262
    24.9505  24.9506  25.1925  25.2273  25.2273  25.3800  25.7539  25.7539
    26.6615  26.6616  26.8302  26.8303  27.3423  27.3424  27.6365  29.2509
    29.9725  30.2841  30.6559  30.6560  30.7244  30.7244  30.9434  31.1933
    31.1933  31.4904  31.5788  31.6597  31.6597  31.7149  31.7149  31.8662
    31.8662  32.1549  32.5868  32.5869  32.8532  33.2830  33.2831  33.9384
    33.9385  34.6396  35.8876  35.8875  36.2701  36.2700  36.9445  37.0756
    37.0756  37.0987  37.5975  37.9208  38.0514  38.6853  38.7397  38.7399
    39.6960

          k = 0.0000 0.0000-0.3109 (  5780 PWs)   bands (ev):

  -104.4981-104.4981-104.4257-104.4257 -59.9778 -59.9778 -59.9761 -59.9761
   -59.9761 -59.9761 -59.9670 -59.9670 -59.9550 -59.9550 -59.9550 -59.9550
   -26.0608 -26.0608 -25.4075 -25.4075 -25.2546 -25.2546 -25.2545 -25.2545
    -3.7428  -3.7428  -2.0984  -2.0984  -1.9724  -1.9724  -1.9724  -1.9724
    -1.4755  -1.4755  -1.4755  -1.4755  -0.1011  -0.1011  -0.1011  -0.1011
    -0.0585  -0.0585   0.2818   0.2818   0.5064   0.5064   0.5065   0.5065
     0.6638   0.6638   0.7016   0.7016   0.7017   0.7017   0.8080   0.8080
     0.8080   0.8080   0.8602   0.8603   0.8732   0.8732   0.8732   0.8732
     0.9370   0.9370   0.9370   0.9370  15.4702  15.4702  18.6281  18.6281
    22.6197  22.6197  22.6198  22.6198  22.6414  22.6414  23.3205  23.3205
    25.1057  25.1057  25.1057  25.1057  26.0472  26.0472  26.1840  26.1840
    26.1840  26.1840  27.0668  27.0668  27.0669  27.0669  27.3497  27.3497
    30.3433  30.3433  31.0877  31.0877  31.0878  31.0878  31.1982  31.1982
    31.3331  31.3331  31.3331  31.3331  31.7784  31.7784  31.7784  31.7784
    32.3406  32.3406  32.5897  32.5897  32.5897  32.5897  33.3147  33.3147
    34.6523  34.6523  34.6524  34.6524  36.9374  36.9372  36.9373  36.9372
    37.8900  37.8899  38.1365  38.1366  38.3096  38.3095  38.7521  38.7523
    39.4750

          k = 0.0000 0.3849 0.0000 (  5787 PWs)   bands (ev):

  -104.5016-104.4869-104.4488-104.4384 -59.9865 -59.9851 -59.9781 -59.9769
   -59.9734 -59.9734 -59.9668 -59.9640 -59.9623 -59.9591 -59.9554 -59.9479
   -26.0282 -25.8006 -25.5504 -25.5396 -25.3970 -25.2565 -25.2549 -25.1586
    -3.3765  -2.8446  -2.7084  -1.9438  -1.9044  -1.7879  -1.7310  -1.6008
    -1.3761  -1.1209  -1.0303  -0.9797  -0.8901  -0.7881  -0.7880  -0.2975
    -0.2718  -0.1692   0.0225   0.1533   0.2226   0.3467   0.4114   0.4802
     0.6216   0.6413   0.6811   0.7097   0.7147   0.7180   0.7679   0.8080
     0.8084   0.8103   0.8230   0.8259   0.8381   0.8412   0.8963   0.8965
     0.8996   0.9298   0.9562   0.9728  15.7752  16.8303  17.2646  18.1747
    22.3158  22.9834  23.0828  23.5621  23.8925  24.0646  24.4436  24.7963
    24.8175  25.1522  25.2180  25.3165  25.5084  25.5435  26.0564  26.0971
    26.1785  26.9718  27.0541  27.1456  27.4181  27.6189  28.0001  28.1424
    28.4856  28.8977  29.2106  29.7696  29.8158  29.8681  30.0314  30.2427
    30.5258  30.5734  30.7558  31.1324  31.8064  31.8428  32.0540  32.3992
    32.4942  32.5005  32.8482  32.9388  32.9786  33.7148  33.7232  33.7812
    33.9219  34.6277  34.6630  34.8261  35.3103  35.4815  35.9797  36.3045
    37.2372  37.3847  37.5906  38.0775  38.1233  38.1432  39.0832  39.1366
    39.1452

          k = 0.0000 0.3849 0.1555 (  5804 PWs)   bands (ev):

  -104.5186-104.5031-104.4598-104.4534 -59.9870 -59.9845 -59.9817 -59.9816
   -59.9773 -59.9748 -59.9728 -59.9674 -59.9617 -59.9608 -59.9561 -59.9548
   -26.0039 -25.8494 -25.5452 -25.5398 -25.3507 -25.2565 -25.2554 -25.1860
    -3.3412  -3.0471  -2.4519  -2.0054  -1.8559  -1.7511  -1.6644  -1.6123
    -1.4114  -1.3665  -1.2535  -1.1212  -0.7393  -0.6254  -0.5429  -0.2858
    -0.2846  -0.1427  -0.0399   0.1381   0.1961   0.3297   0.4254   0.4704
     0.6257   0.6539   0.6823   0.7088   0.7107   0.7354   0.7760   0.8002
     0.8085   0.8131   0.8276   0.8279   0.8406   0.8528   0.8818   0.8878
     0.9120   0.9130   0.9230   0.9633  15.8776  16.5550  17.5038  18.0828
    22.4800  22.9827  23.0586  23.4671  23.8284  24.0070  24.2449  24.6544
    24.8820  25.0729  25.1556  25.3229  25.5407  25.9377  26.0938  26.2731
    26.4882  26.9186  26.9961  27.1526  27.2761  27.8912  28.0487  28.2023
    28.5127  28.6385  29.1270  29.4930  29.5865  29.7570  30.0539  30.3510
    30.5257  30.7740  30.7748  31.3899  31.6700  31.7317  31.7961  32.0083
    32.4662  32.5926  32.7536  32.9038  33.2554  33.3653  33.5211  33.9827
    34.0316  34.5697  34.6009  35.1316  35.4400  35.8459  36.0212  36.6598
    37.1348  37.3843  37.6993  37.9340  38.2904  38.5074  38.9061  39.1180
    39.4707

          k = 0.0000 0.3849-0.3109 (  5816 PWs)   bands (ev):

  -104.5167-104.5167-104.4726-104.4726 -59.9911 -59.9911 -59.9782 -59.9782
   -59.9773 -59.9773 -59.9747 -59.9747 -59.9615 -59.9615 -59.9588 -59.9588
   -25.9367 -25.9367 -25.5412 -25.5412 -25.2598 -25.2598 -25.2561 -25.2561
    -3.2320  -3.2320  -2.1619  -2.1619  -1.7186  -1.7186  -1.6666  -1.6666
    -1.4941  -1.4941  -1.3017  -1.3017  -0.5814  -0.5814  -0.3494  -0.3494
    -0.1818  -0.1818  -0.0315  -0.0315   0.2780   0.2780   0.4493   0.4493
     0.6504   0.6504   0.6937   0.6937   0.7260   0.7260   0.7911   0.7911
     0.8232   0.8232   0.8258   0.8258   0.8490   0.8490   0.8732   0.8732
     0.8928   0.8928   0.9375   0.9375  16.1633  16.1633  17.8343  17.8344
    22.7784  22.7785  23.2533  23.2533  23.8798  23.8798  24.2011  24.2011
    25.0119  25.0119  25.4051  25.4051  25.5922  25.5922  26.5021  26.5021
    26.6775  26.6775  27.3349  27.3349  27.6296  27.6296  27.8927  27.8927
    28.5872  28.5872  28.9624  28.9624  29.7874  29.7874  30.5131  30.5131
    30.6093  30.6093  30.7374  30.7374  31.4913  31.4913  32.2882  32.2882
    32.2887  32.2888  32.6767  32.6768  33.2452  33.2452  33.8122  33.8122
    34.3024  34.3024  35.0790  35.0788  35.5918  35.5916  36.5947  36.5947
    37.6327  37.6325  37.6495  37.6495  38.6001  38.6003  39.0288  39.0293
    39.3626

          k =-0.5000-0.2887 0.0000 (  5800 PWs)   bands (ev):

  -104.5094-104.4945-104.4836-104.4317 -59.9853 -59.9837 -59.9808 -59.9802
   -59.9785 -59.9733 -59.9730 -59.9674 -59.9655 -59.9605 -59.9551 -59.9511
   -25.9649 -25.7311 -25.6186 -25.5504 -25.4733 -25.2573 -25.2553 -25.1459
    -3.1291  -2.6782  -2.6033  -1.9847  -1.9202  -1.7762  -1.4062  -1.3252
    -1.2669  -1.1754  -1.0374  -0.9648  -0.9561  -0.9280  -0.7961  -0.6870
    -0.6796  -0.3600  -0.0504   0.0816   0.2185   0.3885   0.4230   0.4385
     0.6158   0.6522   0.6734   0.6845   0.7147   0.7192   0.7543   0.7587
     0.8010   0.8012   0.8196   0.8207   0.8319   0.8387   0.8979   0.9107
     0.9460   0.9509   0.9521   0.9657  16.3190  16.9069  17.1751  17.6819
    22.2764  23.4017  23.6183  23.6576  23.8622  24.3870  24.5270  24.7029
    24.8892  24.9414  24.9553  25.1086  25.4952  25.7306  26.0985  26.2882
    26.9627  27.1503  27.2010  27.6739  28.0655  28.1483  28.6502  28.7900
    28.8694  28.9050  28.9242  28.9710  28.9726  29.1484  29.1954  30.0825
    30.3094  30.3756  30.3999  30.9254  31.1556  31.5741  31.9190  31.9565
    32.0421  32.1435  32.2304  32.3053  33.2651  33.3686  33.3985  34.0129
    34.0149  34.6854  34.9421  35.1161  35.3573  35.4502  35.6898  35.7720
    36.8416  37.3554  37.7322  37.8600  37.9462  38.9086  39.0529  39.1559
    39.1843

          k =-0.5000-0.2887 0.1555 (  5822 PWs)   bands (ev):

  -104.5317-104.5261-104.4718-104.4675 -59.9874 -59.9846 -59.9842 -59.9837
   -59.9833 -59.9808 -59.9789 -59.9761 -59.9614 -59.9591 -59.9588 -59.9576
   -25.9395 -25.7771 -25.6179 -25.5946 -25.3797 -25.2572 -25.2559 -25.1764
    -3.0999  -2.8569  -2.3894  -2.0294  -1.8611  -1.7282  -1.4229  -1.3941
    -1.3774  -1.2990  -1.0306  -0.9816  -0.9509  -0.9291  -0.7577  -0.6894
    -0.5229  -0.2681  -0.1178   0.1307   0.1511   0.3534   0.4255   0.4408
     0.6297   0.6551   0.6785   0.6815   0.7045   0.7399   0.7610   0.7768
     0.8103   0.8113   0.8206   0.8245   0.8379   0.8512   0.8933   0.8976
     0.9112   0.9352   0.9406   0.9434  16.3852  16.8096  17.2416  17.6058
    22.5339  23.2414  23.5932  23.6222  23.9647  24.0017  24.1927  24.8397
    24.8531  24.9197  25.2870  25.4361  25.4997  25.9776  26.0919  26.1127
    26.8599  27.0350  27.0835  27.8506  28.2652  28.3452  28.5147  28.5992
    28.6429  28.8390  28.8666  28.9200  29.2439  29.2993  29.4284  30.0593
    30.0808  30.4442  30.5230  30.7906  30.9130  31.7223  31.8946  31.9221
    32.0657  32.1362  32.1404  32.2733  32.7760  33.1057  33.3744  34.0446
    34.3422  34.6788  34.8903  35.0571  35.1526  35.6460  35.6706  36.7623
    36.9750  37.2219  37.4736  37.7651  38.1086  39.0389  39.1172  39.2616
    39.6732

          k =-0.5000-0.2887-0.3109 (  5804 PWs)   bands (ev):

  -104.4998-104.4998-104.4673-104.4673 -59.9820 -59.9820 -59.9804 -59.9804
   -59.9763 -59.9763 -59.9719 -59.9719 -59.9636 -59.9636 -59.9563 -59.9563
   -25.8682 -25.8682 -25.6131 -25.6131 -25.2609 -25.2609 -25.2565 -25.2565
    -3.0093  -3.0093  -2.1675  -2.1675  -1.6683  -1.6683  -1.5958  -1.5958
    -1.3544  -1.3544  -1.0076  -1.0076  -0.9359  -0.9359  -0.7129  -0.7129
    -0.2901  -0.2901  -0.0634  -0.0634   0.2737   0.2737   0.4338   0.4338
     0.6493   0.6493   0.6884   0.6884   0.7212   0.7212   0.7963   0.7963
     0.8272   0.8272   0.8309   0.8310   0.8389   0.8389   0.8778   0.8778
     0.8933   0.8933   0.9377   0.9377  16.5794  16.5795  17.4320  17.4321
    23.0670  23.0670  23.5802  23.5802  23.6005  23.6006  24.5055  24.5055
    25.1851  25.1851  25.2366  25.2366  25.7714  25.7714  26.5517  26.5517
    26.5746  26.5746  27.3101  27.3101  28.3108  28.3108  28.4996  28.4996
    28.8944  28.8944  29.1272  29.1272  29.4247  29.4247  29.8694  29.8694
    29.9418  29.9417  30.3594  30.3594  31.2636  31.2636  31.9293  31.9293
    31.9621  31.9621  32.5945  32.5945  32.9136  32.9136  33.2097  33.2097
    34.7021  34.7021  34.9417  34.9416  35.2680  35.2679  36.7727  36.7727
    37.2670  37.2668  37.3721  37.3721  38.7053  38.7052  39.7589  39.7593
    39.8178

          k =-0.5000 0.0962 0.0000 (  5827 PWs)   bands (ev):

  -104.5351-104.5065-104.5023-104.4687 -59.9895 -59.9885 -59.9862 -59.9838
   -59.9821 -59.9787 -59.9750 -59.9704 -59.9694 -59.9652 -59.9618 -59.9537
   -25.9654 -25.7305 -25.6195 -25.5507 -25.4726 -25.2574 -25.2562 -25.1459
    -3.0817  -2.6777  -2.5670  -2.0410  -1.9048  -1.8067  -1.7414  -1.3346
    -1.2025  -1.1501  -1.1023  -0.9608  -0.8755  -0.8505  -0.8240  -0.7410
    -0.3640  -0.2583   0.0236   0.1110   0.1859   0.2888   0.3309   0.3700
     0.6243   0.6516   0.6517   0.6648   0.7060   0.7421   0.7656   0.7714
     0.7865   0.8115   0.8118   0.8325   0.8503   0.8517   0.8832   0.8861
     0.9256   0.9259   0.9502   0.9726  16.2284  17.0295  17.1091  17.7748
    22.3736  22.9512  23.1980  23.3763  24.4284  24.4331  24.8620  24.9039
    24.9310  25.0126  25.1718  25.5036  25.5608  25.6401  26.1196  26.3962
    26.7091  26.9145  27.2539  27.3715  27.7035  27.7444  27.7939  28.3448
    28.5560  28.8159  28.9203  29.2252  29.4078  29.5176  29.6687  29.9403
    30.1022  30.3948  30.7182  31.0192  31.3187  31.6884  31.7114  32.0638
    32.5513  32.7682  32.8035  32.9282  33.0228  33.3055  33.5356  33.7682
    34.0782  34.3682  34.7551  34.7815  34.8880  35.2999  35.4280  35.5399
    37.4973  37.5682  37.7148  38.3014  38.3040  38.5417  38.8902  39.1462
    39.1682

          k =-0.5000 0.0962 0.1555 (  5825 PWs)   bands (ev):

  -104.5345-104.5093-104.4868-104.4751 -59.9903 -59.9889 -59.9840 -59.9834
   -59.9801 -59.9773 -59.9749 -59.9738 -59.9647 -59.9643 -59.9604 -59.9579
   -25.9398 -25.7772 -25.6182 -25.5940 -25.3794 -25.2571 -25.2564 -25.1762
    -3.0535  -2.8280  -2.3890  -2.0932  -1.8340  -1.7583  -1.7004  -1.4112
    -1.3220  -1.2651  -1.1492  -1.1230  -0.8603  -0.8253  -0.6238  -0.5713
    -0.3349  -0.2371  -0.0317   0.0969   0.1699   0.2974   0.3229   0.3477
     0.6290   0.6473   0.6564   0.6654   0.7251   0.7587   0.7685   0.7830
     0.7921   0.8062   0.8270   0.8363   0.8446   0.8516   0.8644   0.9032
     0.9084   0.9249   0.9314   0.9473  16.3089  16.8107  17.2957  17.7008
    22.5435  23.0598  23.1187  23.3073  24.2524  24.3798  24.5688  24.8641
    24.9531  25.0910  25.2256  25.4034  25.6551  25.9924  26.1267  26.4988
    26.8393  26.8970  27.0995  27.3172  27.5792  27.8435  28.0186  28.3181
    28.5047  28.9640  29.0423  29.2568  29.3313  29.5526  29.7081  29.7209
    30.1004  30.3341  30.6541  30.9240  30.9915  31.6368  31.7689  32.2372
    32.4250  32.6076  32.7329  32.9394  32.9984  33.2388  33.3894  33.7999
    34.0300  34.5166  34.6203  34.8314  35.0378  35.2649  35.8749  36.5700
    36.8513  37.0687  37.8772  38.2079  38.3771  38.6593  38.9902  39.1947
    39.2584

          k =-0.5000 0.0962-0.3109 (  5824 PWs)   bands (ev):

  -104.5158-104.5158-104.4856-104.4856 -59.9881 -59.9881 -59.9824 -59.9824
   -59.9773 -59.9773 -59.9751 -59.9751 -59.9660 -59.9660 -59.9603 -59.9603
   -25.8687 -25.8687 -25.6131 -25.6131 -25.2606 -25.2606 -25.2567 -25.2567
    -2.9686  -2.9686  -2.2044  -2.2044  -1.6933  -1.6933  -1.6082  -1.6082
    -1.4372  -1.4372  -1.1503  -1.1503  -0.8350  -0.8350  -0.4732  -0.4732
    -0.2541  -0.2541  -0.0422  -0.0422   0.2628   0.2628   0.3154   0.3154
     0.6376   0.6376   0.6632   0.6632   0.7558   0.7558   0.7807   0.7807
     0.8094   0.8094   0.8273   0.8273   0.8582   0.8582   0.8838   0.8838
     0.8969   0.8969   0.9228   0.9228  16.5272  16.5272  17.5179  17.5179
    22.8741  22.8741  23.2465  23.2465  24.0822  24.0822  24.7223  24.7223
    24.8920  24.8920  25.5116  25.5116  25.9577  25.9577  26.3432  26.3432
    26.6063  26.6063  27.3683  27.3683  27.9126  27.9126  28.2652  28.2652
    28.6277  28.6277  29.0519  29.0519  29.4722  29.4722  29.7804  29.7804
    29.9212  29.9212  30.7659  30.7660  31.6676  31.6676  31.7978  31.7978
    32.1882  32.1882  32.6669  32.6669  33.2400  33.2400  33.6965  33.6965
    34.3474  34.3474  34.6858  34.6858  35.2051  35.2051  36.4221  36.4222
    37.2280  37.2280  37.8831  37.8832  38.6474  38.6476  38.8863  38.8862
    39.5475

     the Fermi energy is    32.5787 ev

!    total energy              =   -3024.85679660 Ry
     Harris-Foulkes estimate   =   -3024.85681736 Ry
     estimated scf accuracy    <       0.00002579 Ry

     The total energy is the sum of the following terms:

     one-electron contribution =    -527.49621834 Ry
     hartree contribution      =     433.32278527 Ry
     xc contribution           =    -271.70433659 Ry
     ewald contribution        =   -2658.36329265 Ry
     smearing contrib. (-TS)   =      -0.61573429 Ry

     convergence has been achieved in  11 iterations

     Forces acting on atoms (Ry/au):

     atom    1 type  1   force =     0.00000000    0.00000000    0.01912885
     atom    2 type  1   force =     0.00000000    0.00000000    0.01912885
     atom    3 type  1   force =     0.00000000    0.00000000   -0.01912885
     atom    4 type  1   force =     0.00000000    0.00000000   -0.01912885
     atom    5 type  2   force =     0.00000000    0.00000000    0.00000000
     atom    6 type  2   force =     0.00000000    0.00000000    0.00000000
     atom    7 type  2   force =     0.00000000    0.00988706    0.00000000
     atom    8 type  2   force =    -0.00856244    0.00494353    0.00000000
     atom    9 type  2   force =     0.00856244    0.00494353    0.00000000
     atom   10 type  2   force =    -0.00856244   -0.00494353    0.00000000
     atom   11 type  2   force =     0.00856244   -0.00494353    0.00000000
     atom   12 type  2   force =     0.00000000   -0.00988706    0.00000000

     Total force =     0.045279     Total SCF correction =     0.000000


     entering subroutine stress ...

          total   stress  (Ry/bohr**3)                   (kbar)     P=  620.21
   0.00431262   0.00000000   0.00000000        634.41      0.00      0.00
   0.00000000   0.00431262   0.00000000          0.00    634.41      0.00
   0.00000000   0.00000000   0.00402317          0.00      0.00    591.83


     BFGS Geometry Optimization

     number of scf cycles    =   1
     number of bfgs steps    =   0

     enthalpy new            =   -3024.8567966020 Ry

     new trust radius        =       0.5000000000 bohr
     new conv_thr            =       0.0001000000 Ry

     new unit-cell volume =   1649.84420 a.u.^3 (   244.48168 Ang^3 )

CELL_PARAMETERS (alat=  9.92348860)
   1.067764947   0.000000000   0.000000000
  -0.533882474   0.924711570   0.000000000
   0.000000000   0.000000000   1.709888763

ATOMIC_POSITIONS (crystal)
Mg       0.333333000   0.666667000   0.063171360
Mg       0.666667000   0.333333000   0.563171360
Mg       0.666667000   0.333333000   0.936828640
Mg       0.333333000   0.666667000   0.436828640
Zn       0.000000000   0.000000000   0.000000000
Zn       0.000000000   0.000000000   0.500000000
Zn       0.170722548   0.341445096   0.750000000
Zn       0.829277452   0.170722548   0.250000000
Zn       0.341445096   0.170722548   0.250000000
Zn       0.658554904   0.829277452   0.750000000
Zn       0.170722548   0.829277452   0.750000000
Zn       0.829277452   0.658554904   0.250000000



     Writing output data file Prototype-La-hP12-MgZn2.save
     NEW-OLD atomic charge density approx. for the potential
     NEW k-points:
        k(    1) = (   0.0000000   0.0000000   0.0000000), wk =   0.0833333
        k(    2) = (   0.0000000   0.0000000   0.1462083), wk =   0.1666667
        k(    3) = (   0.0000000   0.0000000  -0.2924167), wk =   0.0833333
        k(    4) = (   0.0000000   0.3604728   0.0000000), wk =   0.1666667
        k(    5) = (   0.0000000   0.3604728   0.1462083), wk =   0.3333333
        k(    6) = (   0.0000000   0.3604728  -0.2924167), wk =   0.1666667
        k(    7) = (  -0.4682679  -0.2703546   0.0000000), wk =   0.0833333
        k(    8) = (  -0.4682679  -0.2703546   0.1462083), wk =   0.1666667
        k(    9) = (  -0.4682679  -0.2703546  -0.2924167), wk =   0.0833333
        k(   10) = (  -0.4682679   0.0901182   0.0000000), wk =   0.1666667
        k(   11) = (  -0.4682679   0.0901182   0.1462083), wk =   0.3333333
        k(   12) = (  -0.4682679   0.0901182  -0.2924167), wk =   0.1666667

     total cpu time spent up to now is      415.5 secs

     Self-consistent Calculation

     iteration #  1     ecut=    40.00 Ry     beta=0.70
     CG style diagonalization
     c_bands:  1 eigenvalues not converged
     ethr =  1.00E-06,  avg # of iterations = 20.2

     total cpu time spent up to now is      513.8 secs

     total energy              =   -3017.03036927 Ry
     Harris-Foulkes estimate   =   -3035.97339670 Ry
     estimated scf accuracy    <      23.88624779 Ry

     iteration #  2     ecut=    40.00 Ry     beta=0.70
     CG style diagonalization
     ethr =  1.00E-02,  avg # of iterations =  3.8

     total cpu time spent up to now is      531.3 secs

     total energy              =   -3023.13032800 Ry
     Harris-Foulkes estimate   =   -3026.26307219 Ry
     estimated scf accuracy    <       4.67461884 Ry

     iteration #  3     ecut=    40.00 Ry     beta=0.70
     CG style diagonalization
     ethr =  2.05E-03,  avg # of iterations =  3.8

     total cpu time spent up to now is      549.0 secs

     total energy              =   -3023.39453804 Ry
     Harris-Foulkes estimate   =   -3026.49881304 Ry
     estimated scf accuracy    <      11.65106107 Ry

     iteration #  4     ecut=    40.00 Ry     beta=0.70
     CG style diagonalization
     ethr =  2.05E-03,  avg # of iterations =  3.3

     total cpu time spent up to now is      564.0 secs

     total energy              =   -3024.80244858 Ry
     Harris-Foulkes estimate   =   -3024.92142251 Ry
     estimated scf accuracy    <       0.26947341 Ry

     iteration #  5     ecut=    40.00 Ry     beta=0.70
     CG style diagonalization
     ethr =  1.18E-04,  avg # of iterations =  3.7

     total cpu time spent up to now is      580.6 secs

     total energy              =   -3024.86776570 Ry
     Harris-Foulkes estimate   =   -3024.88016715 Ry
     estimated scf accuracy    <       0.03173929 Ry

     iteration #  6     ecut=    40.00 Ry     beta=0.70
     CG style diagonalization
     ethr =  1.39E-05,  avg # of iterations =  3.6

     total cpu time spent up to now is      597.2 secs

     total energy              =   -3024.87348811 Ry
     Harris-Foulkes estimate   =   -3024.87509858 Ry
     estimated scf accuracy    <       0.00402139 Ry

     iteration #  7     ecut=    40.00 Ry     beta=0.70
     CG style diagonalization
     ethr =  1.76E-06,  avg # of iterations =  3.6

     total cpu time spent up to now is      614.3 secs

     total energy              =   -3024.87425306 Ry
     Harris-Foulkes estimate   =   -3024.87436209 Ry
     estimated scf accuracy    <       0.00018534 Ry

     iteration #  8     ecut=    40.00 Ry     beta=0.70
     CG style diagonalization
     ethr =  8.13E-08,  avg # of iterations =  4.2

     total cpu time spent up to now is      634.7 secs

     End of self-consistent calculation

          k = 0.0000 0.0000 0.0000 (  5769 PWs)   bands (ev):

  -109.7135-109.6636-109.6479-109.5233 -66.1968 -66.1968 -66.1962 -66.1869
   -66.1869 -66.1850 -66.1849 -66.1848 -66.1818 -66.1803 -66.1803 -66.1681
   -31.8548 -31.7376 -31.5791 -31.4493 -31.4132 -31.4132 -31.4114 -31.4114
    -8.5546  -8.1948  -7.8342  -7.3615  -7.3615  -7.2576  -7.2576  -7.2451
    -7.2451  -6.9278  -6.6678  -6.6678  -6.6294  -6.6293  -6.5874  -6.0544
    -6.0544  -6.0396  -6.0335  -6.0334  -5.8977  -5.8977  -5.8181  -5.8180
    -5.3662  -5.3652  -5.3651  -5.3550  -5.3436  -5.3436  -5.3017  -5.3017
    -5.3013  -5.3013  -5.2873  -5.2738  -5.2738  -5.2707  -5.2707  -5.2614
    -5.2614  -5.2611  -5.2611  -5.2460  10.4314  11.4072  12.3987  13.8627
    17.6441  17.7001  17.7002  18.4538  18.4760  18.4947  18.4948  18.8706
    19.2044  19.8158  19.9733  19.9733  20.3205  20.3205  20.4410  20.4410
    21.4131  21.4133  21.5232  21.5232  21.6978  21.6978  22.9279  23.5644
    23.8550  23.9485  24.2118  24.3173  24.3174  24.4902  24.4902  24.9943
    25.1197  25.1198  25.2427  25.4256  25.4350  25.4350  25.5088  25.5088
    25.5207  25.5207  26.0242  26.0322  26.0323  26.5009  26.5009  27.7416
    27.7416  27.8028  28.3462  28.3463  29.0733  29.5398  29.9400  29.9558
    30.2319  30.2320  30.6955  30.8963  30.8964  31.1284  31.1285  32.1208
    32.4548

          k = 0.0000 0.0000 0.1462 (  5780 PWs)   bands (ev):

  -109.7136-109.7097-109.6339-109.5436 -66.1941 -66.1932 -66.1932 -66.1929
   -66.1929 -66.1898 -66.1851 -66.1851 -66.1833 -66.1821 -66.1821 -66.1706
   -31.8420 -31.7636 -31.5495 -31.4654 -31.4138 -31.4137 -31.4124 -31.4123
    -8.5233  -8.2924  -7.6917  -7.3557  -7.3557  -7.3041  -7.3041  -7.1668
    -7.1667  -7.1124  -6.8597  -6.8596  -6.4388  -6.4387  -6.4271  -6.1086
    -6.1085  -6.0772  -6.0418  -6.0388  -5.8794  -5.8794  -5.8280  -5.8280
    -5.3699  -5.3633  -5.3633  -5.3594  -5.3471  -5.3471  -5.3016  -5.3016
    -5.2994  -5.2994  -5.2750  -5.2749  -5.2744  -5.2744  -5.2740  -5.2648
    -5.2648  -5.2637  -5.2637  -5.2549  10.5293  11.1623  12.6955  13.6536
    17.7945  17.7946  17.8992  18.0170  18.2603  18.3467  18.3469  18.9927
    19.8684  20.0159  20.0159  20.0458  20.2696  20.2696  20.6434  20.6435
    21.3385  21.3386  21.4506  21.4506  21.5667  21.5667  21.9120  22.9270
    24.0356  24.2562  24.5741  24.5741  24.6396  24.6397  24.8942  25.0498
    25.1343  25.1343  25.3537  25.4065  25.4417  25.4417  25.4733  25.4733
    25.5761  25.5761  25.9128  25.9783  25.9783  26.5150  26.5151  27.2099
    27.2099  27.2706  28.5628  28.5628  29.5944  29.6640  29.6641  29.6927
    29.9431  29.9534  30.7400  30.7401  31.0502  31.9792  31.9794  32.3931
    32.5620

          k = 0.0000 0.0000-0.2924 (  5780 PWs)   bands (ev):

  -109.7012-109.7012-109.5946-109.5946 -66.1921 -66.1921 -66.1921 -66.1921
   -66.1916 -66.1916 -66.1848 -66.1848 -66.1810 -66.1810 -66.1810 -66.1810
   -31.8097 -31.8097 -31.5043 -31.5043 -31.4108 -31.4108 -31.4108 -31.4108
    -8.4289  -8.4289  -7.4263  -7.4263  -7.3330  -7.3330  -7.3330  -7.3330
    -7.0319  -7.0319  -7.0318  -7.0318  -6.2471  -6.2471  -6.2471  -6.2471
    -6.2183  -6.2183  -6.0359  -6.0358  -5.8522  -5.8522  -5.8522  -5.8522
    -5.3767  -5.3766  -5.3551  -5.3551  -5.3551  -5.3551  -5.2996  -5.2996
    -5.2996  -5.2996  -5.2755  -5.2754  -5.2710  -5.2709  -5.2709  -5.2709
    -5.2579  -5.2579  -5.2579  -5.2579  10.7957  10.7957  13.2067  13.2067
    17.8997  17.8998  18.0463  18.0463  18.0464  18.0464  18.5677  18.5678
    20.1412  20.1412  20.1412  20.1412  20.6594  20.6594  21.0712  21.0712
    21.0712  21.0712  21.3853  21.3853  21.3854  21.3854  21.4328  21.4328
    24.4667  24.4667  24.9968  24.9968  24.9968  24.9968  25.1372  25.1372
    25.1372  25.1373  25.1967  25.1967  25.4957  25.4957  25.4957  25.4957
    25.5932  25.5932  26.0056  26.0056  26.0979  26.0979  26.0979  26.0979
    27.6921  27.6921  27.6921  27.6921  29.9492  29.9492  30.1735  30.1735
    30.1735  30.1735  30.7298  30.7298  30.8425  30.8425  32.9814  32.9815
    32.9815

          k = 0.0000 0.3605 0.0000 (  5787 PWs)   bands (ev):

  -109.7062-109.6862-109.6322-109.6119 -66.1991 -66.1983 -66.1927 -66.1908
   -66.1897 -66.1892 -66.1885 -66.1859 -66.1850 -66.1817 -66.1800 -66.1719
   -31.7974 -31.6749 -31.5796 -31.5567 -31.4750 -31.4131 -31.4111 -31.3743
    -8.2113  -7.8751  -7.7966  -7.3247  -7.2932  -7.2318  -7.1930  -7.1136
    -6.9789  -6.8225  -6.7974  -6.7383  -6.6962  -6.6497  -6.6316  -6.3427
    -6.3278  -6.2690  -6.1504  -6.0812  -6.0515  -5.9524  -5.9305  -5.8826
    -5.3844  -5.3728  -5.3629  -5.3614  -5.3436  -5.3369  -5.3183  -5.3036
    -5.2951  -5.2940  -5.2939  -5.2883  -5.2866  -5.2805  -5.2771  -5.2661
    -5.2642  -5.2561  -5.2514  -5.2500  10.9784  11.7997  12.1135  12.9438
    17.5153  18.2403  18.3196  18.4962  19.0103  19.2971  19.4136  19.6639
    19.7683  19.9952  20.0627  20.1707  20.2756  20.3018  20.8739  20.9059
    21.0610  21.4804  21.7698  21.7706  21.8206  22.0202  22.4494  22.4853
    23.0326  23.0374  23.2205  23.7180  23.8342  24.0530  24.0722  24.1137
    24.4159  24.6376  24.6648  25.1074  25.2318  25.3461  25.6595  26.0307
    26.0413  26.0794  26.1283  26.3036  26.3558  26.6734  26.8946  26.9194
    26.9997  27.5785  27.6840  27.7709  28.0655  28.4166  28.7097  29.0434
    30.2431  30.3475  31.1687  31.1985  31.2051  31.6113  32.0792  32.2947
    32.5846

          k = 0.0000 0.3605 0.1462 (  5804 PWs)   bands (ev):

  -109.7332-109.7075-109.6466-109.6353 -66.1994 -66.1979 -66.1953 -66.1940
   -66.1934 -66.1905 -66.1890 -66.1882 -66.1851 -66.1822 -66.1821 -66.1771
   -31.7854 -31.7037 -31.5699 -31.5571 -31.4584 -31.4144 -31.4126 -31.3865
    -8.1902  -8.0032  -7.6406  -7.3636  -7.2642  -7.2119  -7.1548  -7.1216
    -7.0095  -6.9745  -6.9094  -6.8300  -6.6112  -6.5439  -6.4908  -6.3370
    -6.3341  -6.2557  -6.1869  -6.1083  -6.0604  -5.9695  -5.9151  -5.8862
    -5.3883  -5.3739  -5.3624  -5.3590  -5.3475  -5.3358  -5.3146  -5.3064
    -5.3031  -5.2979  -5.2976  -5.2915  -5.2822  -5.2808  -5.2772  -5.2729
    -5.2663  -5.2578  -5.2562  -5.2542  11.0530  11.5721  12.3254  12.8538
    17.6742  18.2108  18.3473  18.4737  18.9712  19.1102  19.2310  19.5622
    19.7876  20.0348  20.1342  20.2243  20.3010  20.5003  20.9878  21.0071
    21.1711  21.4291  21.5933  21.6789  21.8815  22.3196  22.3298  22.5731
    22.7191  23.0904  23.1885  23.6913  23.7880  23.7923  24.1023  24.2258
    24.4349  24.7888  24.8104  25.0752  25.2606  25.4198  25.4816  25.7203
    25.7349  25.9697  26.2132  26.2683  26.3641  26.6233  26.8131  27.0888
    27.1085  27.4129  27.5641  28.1282  28.2585  28.5951  28.6394  29.4129
    30.2823  30.6217  30.8858  31.1628  31.2563  31.7029  31.7607  32.3863
    32.6620

          k = 0.0000 0.3605-0.2924 (  5816 PWs)   bands (ev):

  -109.7287-109.7287-109.6647-109.6647 -66.2022 -66.2022 -66.1937 -66.1937
   -66.1924 -66.1924 -66.1904 -66.1904 -66.1854 -66.1854 -66.1803 -66.1803
   -31.7504 -31.7504 -31.5615 -31.5615 -31.4200 -31.4200 -31.4146 -31.4146
    -8.1214  -8.1214  -7.4659  -7.4659  -7.1851  -7.1851  -7.1580  -7.1580
    -7.0558  -7.0558  -6.9368  -6.9368  -6.5150  -6.5150  -6.3743  -6.3743
    -6.2731  -6.2731  -6.2027  -6.2027  -6.0129  -6.0129  -5.8956  -5.8956
    -5.3788  -5.3788  -5.3599  -5.3599  -5.3478  -5.3478  -5.3100  -5.3100
    -5.2995  -5.2995  -5.2969  -5.2969  -5.2805  -5.2805  -5.2804  -5.2804
    -5.2630  -5.2630  -5.2625  -5.2625  11.2666  11.2666  12.6215  12.6215
    18.0151  18.0151  18.4131  18.4131  18.9398  18.9398  19.2217  19.2217
    19.9998  19.9998  20.2316  20.2316  20.4598  20.4598  21.0811  21.0811
    21.3033  21.3033  21.7893  21.7893  22.1322  22.1322  22.1858  22.1858
    22.8623  22.8624  23.3615  23.3615  23.8996  23.8996  24.3934  24.3934
    24.5743  24.5744  24.6589  24.6589  25.3520  25.3520  25.6324  25.6324
    25.8602  25.8602  25.9077  25.9077  26.5947  26.5947  27.0233  27.0233
    27.2168  27.2168  27.8734  27.8734  28.4662  28.4662  29.3863  29.3864
    30.4465  30.4466  30.9918  30.9918  31.5009  31.5010  32.2505  32.2505
    32.4971

          k =-0.4683-0.2704 0.0000 (  5800 PWs)   bands (ev):

  -109.7218-109.6942-109.6807-109.6042 -66.1977 -66.1965 -66.1958 -66.1952
   -66.1939 -66.1912 -66.1894 -66.1887 -66.1852 -66.1812 -66.1787 -66.1772
   -31.7663 -31.6445 -31.5933 -31.5795 -31.5089 -31.4157 -31.4115 -31.3689
    -8.0592  -7.7797  -7.7281  -7.3774  -7.3038  -7.2261  -7.0157  -6.9592
    -6.9209  -6.8512  -6.7897  -6.7426  -6.7142  -6.7042  -6.6397  -6.5907
    -6.5440  -6.3760  -6.1881  -6.1269  -6.0531  -5.9329  -5.9282  -5.8939
    -5.3857  -5.3726  -5.3718  -5.3508  -5.3467  -5.3348  -5.3240  -5.3238
    -5.3034  -5.2999  -5.2998  -5.2969  -5.2818  -5.2818  -5.2676  -5.2664
    -5.2663  -5.2562  -5.2484  -5.2464  11.3281  11.8464  12.0448  12.5812
    17.4417  18.3756  18.5006  18.6895  18.9879  19.4816  19.5680  19.7998
    19.9390  19.9608  19.9615  20.2008  20.3344  20.6652  20.8861  20.9129
    21.2958  21.8703  21.8747  21.8938  22.1220  22.4859  22.8177  22.8975
    23.0581  23.1226  23.2103  23.2676  23.2681  23.2907  23.4652  23.8975
    24.0954  24.2153  24.5444  24.9816  25.1124  25.3390  25.3445  25.6068
    25.7554  25.7648  25.8357  25.9146  26.1805  26.3652  26.8173  27.0038
    27.1530  27.8292  27.8774  27.8803  28.1050  28.1967  28.3488  28.7781
    30.2252  30.5023  30.7752  31.0113  31.3121  32.2075  32.2981  32.3965
    32.7634

          k =-0.4683-0.2704 0.1462 (  5822 PWs)   bands (ev):

  -109.7506-109.7436-109.6643-109.6571 -66.2012 -66.1981 -66.1980 -66.1971
   -66.1966 -66.1936 -66.1931 -66.1913 -66.1856 -66.1831 -66.1802 -66.1800
   -31.7544 -31.6696 -31.5947 -31.5892 -31.4751 -31.4166 -31.4139 -31.3836
    -8.0414  -7.8880  -7.6058  -7.4014  -7.2701  -7.1979  -7.0182  -7.0082
    -6.9819  -6.9416  -6.7900  -6.7602  -6.7114  -6.7064  -6.6029  -6.5514
    -6.4827  -6.3316  -6.2261  -6.1105  -6.0886  -5.9535  -5.9184  -5.8970
    -5.3902  -5.3766  -5.3677  -5.3582  -5.3542  -5.3326  -5.3290  -5.3181
    -5.3055  -5.3007  -5.2898  -5.2883  -5.2849  -5.2845  -5.2777  -5.2743
    -5.2700  -5.2635  -5.2608  -5.2543  11.3777  11.7293  12.1536  12.5025
    17.6596  18.3546  18.5164  18.6474  18.9972  19.0345  19.3427  19.8482
    20.0001  20.0042  20.1590  20.3051  20.3491  20.7480  20.9173  20.9901
    21.3132  21.6929  21.7163  22.0413  22.4142  22.4811  22.7390  22.8383
    23.0276  23.0846  23.1573  23.2219  23.3457  23.3732  23.6154  23.9467
    23.9604  24.2375  24.5846  24.7995  24.8482  25.3979  25.4573  25.5728
    25.6301  25.7802  25.8122  25.8309  26.0508  26.1364  26.7848  27.1714
    27.2465  27.6810  27.7899  27.9290  28.0484  28.4125  28.4998  29.5741
    30.1317  30.5777  30.7629  30.8242  31.2465  32.1664  32.4026  32.6259
    32.7740

          k =-0.4683-0.2704-0.2924 (  5804 PWs)   bands (ev):

  -109.7070-109.7070-109.6547-109.6547 -66.1962 -66.1962 -66.1944 -66.1944
   -66.1934 -66.1933 -66.1887 -66.1887 -66.1867 -66.1867 -66.1774 -66.1774
   -31.7162 -31.7162 -31.5921 -31.5921 -31.4226 -31.4226 -31.4147 -31.4147
    -7.9840  -7.9840  -7.4795  -7.4795  -7.1529  -7.1529  -7.1201  -7.1201
    -6.9784  -6.9784  -6.7771  -6.7771  -6.7042  -6.7042  -6.5643  -6.5643
    -6.3308  -6.3308  -6.2220  -6.2220  -6.0099  -6.0099  -5.9038  -5.9038
    -5.3760  -5.3760  -5.3672  -5.3672  -5.3417  -5.3417  -5.3124  -5.3124
    -5.2970  -5.2970  -5.2851  -5.2851  -5.2849  -5.2849  -5.2815  -5.2815
    -5.2620  -5.2620  -5.2614  -5.2614  11.5321  11.5321  12.3455  12.3455
    18.1776  18.1777  18.5698  18.5698  18.6921  18.6921  19.5852  19.5852
    20.1639  20.1640  20.2459  20.2460  20.4261  20.4261  21.3311  21.3311
    21.3538  21.3538  21.8056  21.8056  22.3872  22.3872  22.9017  22.9017
    23.0483  23.0483  23.1495  23.1495  23.4825  23.4826  23.9381  23.9381
    24.0760  24.0760  24.2587  24.2587  25.1449  25.1449  25.5321  25.5321
    25.6353  25.6353  25.7561  25.7561  26.3785  26.3785  26.5681  26.5681
    27.6000  27.6000  27.7427  27.7427  28.3438  28.3438  29.5037  29.5037
    30.3826  30.3826  30.6452  30.6453  31.8493  31.8495  32.6923  32.7792
    32.7792

          k =-0.4683 0.0901 0.0000 (  5827 PWs)   bands (ev):

  -109.7550-109.7148-109.7091-109.6606 -66.2008 -66.2006 -66.1977 -66.1967
   -66.1956 -66.1932 -66.1929 -66.1903 -66.1897 -66.1876 -66.1823 -66.1767
   -31.7680 -31.6437 -31.5957 -31.5815 -31.5094 -31.4167 -31.4140 -31.3689
    -8.0333  -7.7798  -7.7151  -7.4013  -7.2970  -7.2458  -7.2000  -6.9514
    -6.8926  -6.8608  -6.8084  -6.7345  -6.6994  -6.6679  -6.6344  -6.6183
    -6.3787  -6.3175  -6.1565  -6.1070  -6.0755  -6.0002  -5.9810  -5.9368
    -5.3896  -5.3797  -5.3732  -5.3725  -5.3482  -5.3304  -5.3236  -5.3177
    -5.3149  -5.3025  -5.2944  -5.2925  -5.2870  -5.2844  -5.2784  -5.2726
    -5.2613  -5.2579  -5.2563  -5.2517  11.2801  11.9012  12.0137  12.6166
    17.5426  17.9977  18.3699  18.4138  19.4327  19.6034  19.7693  19.8559
    19.8696  19.9958  20.1145  20.3134  20.4746  20.6274  20.9221  21.0990
    21.1117  21.4837  21.8689  21.9299  22.0516  22.1489  22.2541  22.7411
    22.9188  23.0885  23.2815  23.3409  23.3927  23.5976  23.6811  23.9262
    24.1801  24.3443  24.4519  24.5137  25.1710  25.3981  25.5026  25.5827
    26.0437  26.1902  26.2176  26.2381  26.3441  26.4812  26.7145  26.8349
    27.1491  27.3920  27.7117  27.7365  28.0258  28.1201  28.1880  28.5429
    30.4381  30.4769  30.7094  31.5923  31.5960  31.7726  32.3013  32.4667
    32.6677

          k =-0.4683 0.0901 0.1462 (  5825 PWs)   bands (ev):

  -109.7564-109.7178-109.6872-109.6677 -66.2022 -66.2006 -66.1969 -66.1965
   -66.1938 -66.1934 -66.1915 -66.1912 -66.1875 -66.1869 -66.1812 -66.1794
   -31.7547 -31.6705 -31.5949 -31.5900 -31.4751 -31.4153 -31.4140 -31.3830
    -8.0149  -7.8726  -7.6094  -7.4324  -7.2550  -7.2148  -7.1764  -7.0013
    -6.9549  -6.9228  -6.8566  -6.8369  -6.6704  -6.6319  -6.5382  -6.5097
    -6.3638  -6.3072  -6.1910  -6.1323  -6.0726  -5.9894  -5.9813  -5.9516
    -5.3868  -5.3792  -5.3745  -5.3715  -5.3431  -5.3251  -5.3232  -5.3143
    -5.3115  -5.3023  -5.2936  -5.2932  -5.2907  -5.2861  -5.2793  -5.2733
    -5.2652  -5.2598  -5.2576  -5.2564  11.3408  11.7290  12.1777  12.5466
    17.6997  18.1055  18.3108  18.3864  19.3092  19.3384  19.5709  19.8027
    19.9038  20.0657  20.1645  20.3520  20.4905  20.8282  20.9405  21.1456
    21.4918  21.4963  21.6327  21.7737  22.0631  22.1909  22.4521  22.7200
    22.8948  23.0948  23.1807  23.4497  23.5702  23.5867  23.6619  23.7558
    24.1241  24.4223  24.4486  24.5197  24.7423  25.3082  25.4832  25.6991
    25.9169  26.0072  26.1026  26.1948  26.3681  26.5769  26.6652  26.8684
    27.2035  27.5155  27.5620  27.7626  27.9668  28.0814  28.7520  29.3431
    30.1153  30.2462  30.7405  31.5372  31.6722  31.7897  32.0728  32.5491
    32.6844

          k =-0.4683 0.0901-0.2924 (  5824 PWs)   bands (ev):

  -109.7278-109.7278-109.6846-109.6846 -66.2000 -66.2000 -66.1964 -66.1964
   -66.1934 -66.1934 -66.1906 -66.1906 -66.1884 -66.1884 -66.1810 -66.1810
   -31.7182 -31.7182 -31.5941 -31.5941 -31.4219 -31.4219 -31.4145 -31.4145
    -7.9605  -7.9605  -7.4997  -7.4997  -7.1712  -7.1712  -7.1221  -7.1221
    -7.0224  -7.0224  -6.8577  -6.8577  -6.6434  -6.6434  -6.4446  -6.4446
    -6.3144  -6.3144  -6.2143  -6.2143  -6.0185  -6.0185  -5.9747  -5.9746
    -5.3816  -5.3816  -5.3736  -5.3736  -5.3329  -5.3329  -5.3159  -5.3159
    -5.3020  -5.3020  -5.2926  -5.2926  -5.2890  -5.2890  -5.2781  -5.2781
    -5.2685  -5.2685  -5.2581  -5.2581  11.5066  11.5066  12.3809  12.3810
    18.0315  18.0315  18.3502  18.3502  19.0488  19.0488  19.6969  19.6969
    19.9061  19.9061  20.4228  20.4228  20.6895  20.6896  21.1278  21.1278
    21.3097  21.3097  21.8891  21.8891  22.3580  22.3580  22.5654  22.5655
    22.8161  22.8161  23.1833  23.1833  23.6190  23.6190  23.8850  23.8850
    23.9760  23.9760  24.5546  24.5546  25.2853  25.2853  25.3884  25.3884
    25.6078  25.6078  26.0893  26.0893  26.5772  26.5772  26.9032  26.9032
    27.3275  27.3275  27.6478  27.6478  28.0345  28.0345  29.5711  29.5711
    30.1614  30.1615  31.0708  31.0708  31.6756  31.6757  32.1484  32.1487
    32.7287

     the Fermi energy is    26.0397 ev

!    total energy              =   -3024.87433144 Ry
     Harris-Foulkes estimate   =   -3024.87436065 Ry
     estimated scf accuracy    <       0.00003433 Ry

     The total energy is the sum of the following terms:

     one-electron contribution =    -763.76014764 Ry
     hartree contribution      =     500.30367589 Ry
     xc contribution           =    -267.43790922 Ry
     ewald contribution        =   -2493.19841391 Ry
     smearing contrib. (-TS)   =      -0.78153656 Ry

     convergence has been achieved in   8 iterations

     Forces acting on atoms (Ry/au):

     atom    1 type  1   force =     0.00000000    0.00000000    0.02055107
     atom    2 type  1   force =     0.00000000    0.00000000    0.02055107
     atom    3 type  1   force =     0.00000000    0.00000000   -0.02055107
     atom    4 type  1   force =     0.00000000    0.00000000   -0.02055107
     atom    5 type  2   force =     0.00000000    0.00000000    0.00000000
     atom    6 type  2   force =     0.00000000    0.00000000    0.00000000
     atom    7 type  2   force =     0.00000000   -0.02007424    0.00000000
     atom    8 type  2   force =     0.01738481   -0.01003712    0.00000000
     atom    9 type  2   force =    -0.01738481   -0.01003712    0.00000000
     atom   10 type  2   force =     0.01738481    0.01003712    0.00000000
     atom   11 type  2   force =    -0.01738481    0.01003712    0.00000000
     atom   12 type  2   force =     0.00000000    0.02007424    0.00000000

     Total force =     0.064088     Total SCF correction =     0.000000


     entering subroutine stress ...

          total   stress  (Ry/bohr**3)                   (kbar)     P= -480.61
  -0.00325073   0.00000000   0.00000000       -478.20      0.00      0.00
   0.00000000  -0.00325073   0.00000000          0.00   -478.20      0.00
   0.00000000   0.00000000  -0.00329984          0.00      0.00   -485.42


     number of scf cycles    =   2
     number of bfgs steps    =   1

     enthalpy old            =   -3024.8567966020 Ry
     enthalpy new            =   -3024.8743314407 Ry

     CASE: enthalpy_new < enthalpy_old

     small trust_radius: resetting bfgs history

     new trust radius        =       0.6701682605 bohr
     new conv_thr            =       0.0000205511 Ry

     new unit-cell volume =   1277.69837 a.u.^3 (   189.33536 Ang^3 )

CELL_PARAMETERS (alat=  9.92348860)
   0.980989496   0.000000000   0.000000000
  -0.490494748   0.849561824   0.000000000
   0.000000000   0.000000000   1.568829940

ATOMIC_POSITIONS (crystal)
Mg       0.333333000   0.666667000   0.064382521
Mg       0.666667000   0.333333000   0.564382521
Mg       0.666667000   0.333333000   0.935617479
Mg       0.333333000   0.666667000   0.435617479
Zn       0.000000000   0.000000000   0.000000000
Zn       0.000000000   0.000000000   0.500000000
Zn       0.169628746   0.339257493   0.750000000
Zn       0.830371254   0.169628746   0.250000000
Zn       0.339257493   0.169628746   0.250000000
Zn       0.660742507   0.830371254   0.750000000
Zn       0.169628746   0.830371254   0.750000000
Zn       0.830371254   0.660742507   0.250000000



     Writing output data file Prototype-La-hP12-MgZn2.save
     NEW-OLD atomic charge density approx. for the potential
     NEW k-points:
        k(    1) = (   0.0000000   0.0000000   0.0000000), wk =   0.0833333
        k(    2) = (   0.0000000   0.0000000   0.1593544), wk =   0.1666667
        k(    3) = (   0.0000000   0.0000000  -0.3187089), wk =   0.0833333
        k(    4) = (   0.0000000   0.3923591   0.0000000), wk =   0.1666667
        k(    5) = (   0.0000000   0.3923591   0.1593544), wk =   0.3333333
        k(    6) = (   0.0000000   0.3923591  -0.3187089), wk =   0.1666667
        k(    7) = (  -0.5096895  -0.2942693   0.0000000), wk =   0.0833333
        k(    8) = (  -0.5096895  -0.2942693   0.1593544), wk =   0.1666667
        k(    9) = (  -0.5096895  -0.2942693  -0.3187089), wk =   0.0833333
        k(   10) = (  -0.5096895   0.0980898   0.0000000), wk =   0.1666667
        k(   11) = (  -0.5096895   0.0980898   0.1593544), wk =   0.3333333
        k(   12) = (  -0.5096895   0.0980898  -0.3187089), wk =   0.1666667

     total cpu time spent up to now is      641.6 secs

     Self-consistent Calculation

     iteration #  1     ecut=    40.00 Ry     beta=0.70
     CG style diagonalization
     c_bands:  1 eigenvalues not converged
     c_bands:  1 eigenvalues not converged
     c_bands:  1 eigenvalues not converged
     c_bands:  1 eigenvalues not converged
     ethr =  1.00E-06,  avg # of iterations = 20.5

     total cpu time spent up to now is      743.3 secs

     total energy              =   -3010.62514466 Ry
     Harris-Foulkes estimate   =   -3044.84142495 Ry
     estimated scf accuracy    <      42.66607092 Ry

     iteration #  2     ecut=    40.00 Ry     beta=0.70
     CG style diagonalization
     ethr =  1.00E-02,  avg # of iterations =  4.2

     total cpu time spent up to now is      763.0 secs

     total energy              =   -3022.12888921 Ry
     Harris-Foulkes estimate   =   -3026.90699587 Ry
     estimated scf accuracy    <       6.95746186 Ry

     iteration #  3     ecut=    40.00 Ry     beta=0.70
     CG style diagonalization
     ethr =  3.05E-03,  avg # of iterations =  3.7

     total cpu time spent up to now is      779.6 secs

     total energy              =   -3023.65437042 Ry
     Harris-Foulkes estimate   =   -3024.99717063 Ry
     estimated scf accuracy    <       2.89230626 Ry

     iteration #  4     ecut=    40.00 Ry     beta=0.70
     CG style diagonalization
     ethr =  1.27E-03,  avg # of iterations =  3.4

     total cpu time spent up to now is      793.8 secs

     total energy              =   -3024.25306342 Ry
     Harris-Foulkes estimate   =   -3024.43839142 Ry
     estimated scf accuracy    <       0.45125352 Ry

     iteration #  5     ecut=    40.00 Ry     beta=0.70
     CG style diagonalization
     ethr =  1.98E-04,  avg # of iterations =  3.3

     total cpu time spent up to now is      807.8 secs

     total energy              =   -3024.35428165 Ry
     Harris-Foulkes estimate   =   -3024.37102737 Ry
     estimated scf accuracy    <       0.03901056 Ry

     iteration #  6     ecut=    40.00 Ry     beta=0.70
     CG style diagonalization
     ethr =  1.71E-05,  avg # of iterations =  3.9

     total cpu time spent up to now is      825.0 secs

     total energy              =   -3024.36158786 Ry
     Harris-Foulkes estimate   =   -3024.36304895 Ry
     estimated scf accuracy    <       0.00283515 Ry

     iteration #  7     ecut=    40.00 Ry     beta=0.70
     CG style diagonalization
     ethr =  1.24E-06,  avg # of iterations =  4.0

     total cpu time spent up to now is      842.6 secs

     total energy              =   -3024.36200849 Ry
     Harris-Foulkes estimate   =   -3024.36223436 Ry
     estimated scf accuracy    <       0.00042292 Ry

     iteration #  8     ecut=    40.00 Ry     beta=0.70
     CG style diagonalization
     ethr =  1.85E-07,  avg # of iterations =  4.0

     total cpu time spent up to now is      859.9 secs

     total energy              =   -3024.36211958 Ry
     Harris-Foulkes estimate   =   -3024.36217781 Ry
     estimated scf accuracy    <       0.00011172 Ry

     iteration #  9     ecut=    40.00 Ry     beta=0.70
     CG style diagonalization
     ethr =  4.90E-08,  avg # of iterations =  3.5

     total cpu time spent up to now is      875.1 secs

     total energy              =   -3024.36215139 Ry
     Harris-Foulkes estimate   =   -3024.36216184 Ry
     estimated scf accuracy    <       0.00002327 Ry

     iteration # 10     ecut=    40.00 Ry     beta=0.70
     CG style diagonalization
     ethr =  1.02E-08,  avg # of iterations =  3.4

     total cpu time spent up to now is      889.9 secs

     End of self-consistent calculation

          k = 0.0000 0.0000 0.0000 (  5769 PWs)   bands (ev):

  -102.4850-102.4493-102.4419-102.3752 -57.7467 -57.7356 -57.7356 -57.7331
   -57.7217 -57.7182 -57.7181 -57.7099 -57.7099 -57.7039 -57.7039 -57.7001
   -24.1547 -23.8596 -23.4126 -23.0824 -23.0403 -23.0402 -23.0374 -23.0374
    -2.3291  -1.6370  -1.0860  -0.1455  -0.1455   0.0511   0.0512   0.0753
     0.0753   0.7061   1.2205   1.2206   1.3039   1.3040   1.5229   2.4854
     2.5397   2.5398   2.5585   2.5590   2.6693   2.6694   2.8156   2.8564
     2.8956   2.8956   2.9117   2.9117   2.9359   2.9360   3.0723   3.0723
     3.0738   3.0738   3.0835   3.0933   3.0934   3.1601   3.1601   3.2194
     3.2194   3.2252   3.2252   3.2652  16.6335  18.2255  19.1443  21.8486
    23.7084  23.7084  23.7870  24.9686  25.1713  25.1714  25.3698  25.5891
    26.2895  26.6834  26.6834  26.9758  27.0598  27.0598  27.3610  27.3610
    28.7003  28.7003  29.1063  29.1064  29.3340  29.3342  31.1702  31.7665
    32.1797  32.4847  32.4849  32.8706  32.9621  32.9622  32.9969  33.1282
    33.3837  33.3838  33.8167  33.8179  33.8179  33.8706  33.8707  34.0712
    34.0712  34.4783  34.9873  34.9874  35.3542  35.9175  35.9176  37.3106
    37.3106  37.4347  38.1008  38.1009  38.9885  38.9886  39.0010  39.0010
    39.0994  39.2330  39.7583  40.5360  40.5361  40.7679  40.7923  41.3556
    41.9268

          k = 0.0000 0.0000 0.1594 (  5780 PWs)   bands (ev):

  -102.4800-102.4745-102.4371-102.3886 -57.7415 -57.7380 -57.7286 -57.7285
   -57.7272 -57.7272 -57.7261 -57.7110 -57.7110 -57.7070 -57.7070 -57.7044
   -24.1237 -23.9244 -23.3425 -23.1187 -23.0399 -23.0399 -23.0379 -23.0378
    -2.2739  -1.8481  -0.7745  -0.1305  -0.1305  -0.0275  -0.0275   0.2173
     0.2173   0.3543   0.8269   0.8269   1.7187   1.7187   1.8190   2.4111
     2.4278   2.4278   2.5568   2.5578   2.6970   2.6970   2.8396   2.8479
     2.8490   2.8490   2.9145   2.9145   2.9561   2.9561   3.0598   3.0598
     3.0647   3.0647   3.1008   3.1072   3.1072   3.1499   3.1499   3.2057
     3.2314   3.2314   3.2336   3.2336  16.7866  17.7850  19.6909  21.3684
    23.8724  23.8725  24.3004  24.6655  24.7698  24.8777  24.8778  25.5223
    26.7567  26.7567  27.0275  27.0275  27.1883  27.5600  27.5920  27.5920
    28.6030  28.6031  28.7958  28.7959  29.4874  29.4875  29.8414  31.7420
    32.0373  32.6207  32.8509  32.8510  32.9683  32.9684  32.9799  33.3745
    33.3745  33.6393  33.8495  33.8495  33.9206  33.9207  34.0686  34.0935
    34.0935  34.5545  35.0491  35.0492  35.4176  35.7587  35.7588  36.4320
    36.4320  37.2813  38.3900  38.3901  38.8227  38.8227  39.1577  39.1577
    39.5993  39.6652  39.7753  40.7584  40.8017  40.9424  40.9425  41.1580
    41.8404

          k = 0.0000 0.0000-0.3187 (  5780 PWs)   bands (ev):

  -102.4749-102.4749-102.4116-102.4116 -57.7400 -57.7399 -57.7272 -57.7272
   -57.7272 -57.7272 -57.7263 -57.7262 -57.7039 -57.7039 -57.7038 -57.7038
   -24.0378 -24.0378 -23.2170 -23.2170 -23.0387 -23.0387 -23.0387 -23.0387
    -2.1084  -2.1084  -0.2294  -0.2294  -0.0876  -0.0876  -0.0876  -0.0876
     0.4717   0.4717   0.4717   0.4717   2.1315   2.1315   2.1316   2.1316
     2.1970   2.1970   2.5592   2.5592   2.7635   2.7635   2.7635   2.7635
     2.8465   2.8465   2.9462   2.9462   2.9462   2.9462   3.0524   3.0524
     3.0524   3.0524   3.1265   3.1265   3.1317   3.1317   3.1317   3.1317
     3.2415   3.2416   3.2416   3.2416  17.2053  17.2053  20.5465  20.5465
    24.3189  24.3189  24.3190  24.3190  24.4035  24.4036  25.1245  25.1245
    26.9183  26.9183  26.9183  26.9183  28.0383  28.0383  28.0384  28.0384
    28.0927  28.0927  29.1542  29.1542  29.1542  29.1543  29.7104  29.7104
    32.4935  32.4935  33.2728  33.2728  33.2729  33.2729  33.2825  33.2825
    33.6023  33.6023  33.6023  33.6023  34.0247  34.0247  34.0247  34.0247
    34.7762  34.7762  34.9401  34.9401  34.9401  34.9401  36.0357  36.0357
    37.1600  37.1600  37.1601  37.1601  39.3150  39.3150  39.3150  39.3150
    40.5878  40.5878  40.6128  40.6128  41.0232  41.0232  41.8093  41.8093
    41.8093

          k = 0.0000 0.3924 0.0000 (  5787 PWs)   bands (ev):

  -102.4769-102.4670-102.4341-102.4229 -57.7391 -57.7375 -57.7369 -57.7338
   -57.7288 -57.7227 -57.7191 -57.7166 -57.7152 -57.7133 -57.7048 -57.7043
   -24.0127 -23.7014 -23.4124 -23.3767 -23.2193 -23.0416 -23.0391 -22.9072
    -1.7032  -1.0312  -1.0000  -0.0486  -0.0407   0.0918   0.2219   0.3373
     0.6224   0.9149   1.0522   1.0702   1.1837   1.2909   1.3102   1.8776
     1.8824   2.0064   2.2775   2.4051   2.5192   2.6314   2.6779   2.7643
     2.8030   2.8214   2.9117   2.9188   2.9436   2.9637   2.9902   3.0480
     3.0529   3.0575   3.0693   3.0745   3.0832   3.0897   3.1607   3.1697
     3.1782   3.2175   3.2757   3.2922  17.5459  18.7703  19.0799  20.1028
    24.0779  24.7050  24.8208  25.4771  25.6590  25.8285  26.2316  26.6771
    26.7113  27.0293  27.1360  27.1894  27.4305  27.5747  27.9343  27.9349
    28.1298  28.9628  28.9673  29.0996  29.4848  29.7640  30.0050  30.2362
    30.4729  31.0428  31.4143  31.8813  31.9755  32.0752  32.2983  32.5220
    32.6793  32.7313  32.9404  33.2858  34.1571  34.3721  34.4268  34.6446
    34.8369  34.8522  35.2226  35.3485  35.4950  36.1483  36.2315  36.2707
    36.5453  37.1919  37.2349  37.4320  37.9449  38.0084  38.5234  38.9690
    39.7508  39.8365  39.9739  40.3694  40.4799  40.5648  41.3737  41.5006
    41.6986

          k = 0.0000 0.3924 0.1594 (  5804 PWs)   bands (ev):

  -102.4933-102.4767-102.4451-102.4347 -57.7444 -57.7410 -57.7373 -57.7338
   -57.7329 -57.7260 -57.7247 -57.7225 -57.7153 -57.7112 -57.7111 -57.7051
   -23.9808 -23.7724 -23.3944 -23.3775 -23.1612 -23.0413 -23.0395 -22.9438
    -1.6627  -1.3214  -0.6424  -0.1259   0.0327   0.1382   0.2905   0.3203
     0.5810   0.6320   0.7580   0.9058   1.3679   1.4972   1.5863   1.8688
     1.8996   2.0443   2.1989   2.4187   2.4657   2.6119   2.6905   2.7471
     2.8117   2.8396   2.9074   2.9370   2.9512   2.9567   3.0060   3.0377
     3.0577   3.0625   3.0781   3.0819   3.0858   3.1087   3.1525   3.1526
     3.1942   3.1975   3.2168   3.2785  17.6603  18.4211  19.3879  20.0120
    24.2350  24.6995  24.8022  25.3452  25.5880  25.7846  26.0418  26.5607
    26.7920  26.9363  27.0368  27.1684  27.4372  27.9335  27.9693  28.2241
    28.4706  28.9144  28.9237  29.2263  29.2441  29.9337  30.1241  30.2846
    30.6732  30.6819  31.3549  31.5589  31.7591  32.0094  32.1934  32.5995
    32.6976  32.9176  32.9475  33.6129  33.9829  34.0123  34.2171  34.2555
    34.9596  35.1038  35.1094  35.2870  35.7579  35.8410  35.9648  36.5226
    36.5469  37.1270  37.1817  37.6313  38.0601  38.4900  38.6852  39.2414
    39.6013  39.6485  40.2196  40.2740  40.8634  40.8958  41.3270  41.4612
    41.6909

          k = 0.0000 0.3924-0.3187 (  5816 PWs)   bands (ev):

  -102.4893-102.4892-102.4544-102.4544 -57.7436 -57.7436 -57.7398 -57.7398
   -57.7281 -57.7281 -57.7275 -57.7275 -57.7142 -57.7142 -57.7110 -57.7110
   -23.8918 -23.8918 -23.3815 -23.3815 -23.0419 -23.0419 -23.0405 -23.0405
    -1.5373  -1.5373  -0.2990  -0.2990   0.2049   0.2049   0.2460   0.2460
     0.4801   0.4802   0.7009   0.7009   1.5448   1.5448   1.8013   1.8013
     2.0300   2.0300   2.2015   2.2015   2.5651   2.5651   2.7166   2.7166
     2.8476   2.8476   2.9248   2.9248   2.9452   2.9453   3.0310   3.0310
     3.0777   3.0777   3.0790   3.0790   3.1045   3.1045   3.1364   3.1365
     3.1603   3.1603   3.2401   3.2401  17.9793  17.9793  19.7530  19.7530
    24.4972  24.4973  25.0573  25.0573  25.6415  25.6416  26.0759  26.0759
    26.8606  26.8606  27.2783  27.2783  27.5092  27.5092  28.3725  28.3725
    28.7536  28.7536  29.3620  29.3620  29.6428  29.6428  30.0468  30.0468
    30.7042  30.7042  31.0086  31.0086  31.9726  31.9726  32.7093  32.7093
    32.7978  32.7978  32.9873  32.9873  33.6801  33.6801  34.5883  34.5883
    34.7550  34.7550  35.2049  35.2049  35.6595  35.6595  36.2914  36.2914
    36.8340  36.8340  37.7071  37.7072  38.1517  38.1517  39.1933  39.1934
    40.0101  40.0102  40.1342  40.1343  41.1348  41.1348  41.3701  41.3701
    41.8488

          k =-0.5097-0.2943 0.0000 (  5800 PWs)   bands (ev):

  -102.4870-102.4691-102.4617-102.4193 -57.7472 -57.7354 -57.7350 -57.7309
   -57.7299 -57.7250 -57.7245 -57.7229 -57.7175 -57.7154 -57.7133 -57.7014
   -23.9423 -23.6119 -23.4679 -23.4123 -23.3189 -23.0422 -23.0396 -22.8907
    -1.4279  -0.9670  -0.7562  -0.0812  -0.0585   0.1062   0.6429   0.6449
     0.7722   0.8517   1.0449   1.0480   1.1150   1.1316   1.2833   1.3681
     1.4468   1.7833   2.1926   2.3316   2.5115   2.6810   2.6825   2.7290
     2.7905   2.8392   2.9014   2.9043   2.9375   2.9483   2.9609   2.9703
     3.0453   3.0466   3.0633   3.0673   3.0732   3.0887   3.1635   3.1858
     3.2399   3.2506   3.2728   3.2914  18.1639  18.7276  19.1449  19.5806
    24.0332  25.1932  25.4848  25.6163  25.6328  26.1369  26.3109  26.3738
    26.7090  26.7862  26.8650  26.9195  27.3201  27.6648  28.0196  28.2569
    29.0515  29.1294  29.1306  29.8164  30.1677  30.2796  30.7588  30.7678
    30.9775  30.9998  31.0972  31.1109  31.1394  31.3124  31.3685  32.4003
    32.4454  32.5608  32.6857  33.1053  33.3590  33.8153  34.1560  34.3292
    34.3834  34.4734  34.5891  34.6232  35.6162  36.0049  36.0784  36.5405
    36.5531  37.2222  37.5238  37.6504  37.9757  38.0631  38.3565  38.5176
    39.2872  39.7478  40.2600  40.3506  40.3724  41.2081  41.3302  41.3841
    41.4727

          k =-0.5097-0.2943 0.1594 (  5822 PWs)   bands (ev):

  -102.5017-102.4986-102.4541-102.4486 -57.7442 -57.7436 -57.7377 -57.7361
   -57.7360 -57.7352 -57.7302 -57.7291 -57.7161 -57.7156 -57.7118 -57.7066
   -23.9088 -23.6864 -23.4676 -23.4522 -23.1985 -23.0419 -23.0401 -22.9309
    -1.3953  -1.1283  -0.5504  -0.1362   0.0157   0.1638   0.5292   0.6120
     0.6554   0.7441   1.0542   1.0589   1.1048   1.1172   1.3059   1.3587
     1.6362   1.9072   2.1072   2.4080   2.4203   2.6362   2.6847   2.7176
     2.8193   2.8448   2.8912   2.9085   2.9345   2.9638   2.9842   3.0009
     3.0568   3.0637   3.0656   3.0754   3.0849   3.1084   3.1581   3.1707
     3.2155   3.2216   3.2370   3.2614  18.2342  18.6606  19.1704  19.5113
    24.3027  24.9851  25.4615  25.5516  25.7064  25.7998  25.9839  26.5450
    26.7053  26.7373  27.1550  27.3482  27.3562  27.8844  27.9680  28.0832
    28.9408  28.9515  29.0259  29.9970  30.3793  30.5288  30.5410  30.6688
    30.8359  30.8903  31.0505  31.0514  31.3937  31.4499  31.5665  32.2540
    32.3618  32.5596  32.8493  32.9982  33.1194  33.9404  34.1058  34.3407
    34.4240  34.4580  34.4966  34.6885  35.1716  35.6693  35.7985  36.6371
    36.8638  37.2865  37.4587  37.5840  37.7574  38.2949  38.3158  39.2195
    39.5663  39.6460  39.9712  40.2776  40.6021  41.3133  41.3797  41.5970
    41.9752

          k =-0.5097-0.2943-0.3187 (  5804 PWs)   bands (ev):

  -102.4788-102.4788-102.4467-102.4467 -57.7402 -57.7402 -57.7312 -57.7312
   -57.7299 -57.7299 -57.7256 -57.7256 -57.7135 -57.7135 -57.7125 -57.7124
   -23.8146 -23.8146 -23.4651 -23.4651 -23.0425 -23.0425 -23.0410 -23.0410
    -1.2950  -1.2950  -0.2983  -0.2983   0.2553   0.2553   0.3225   0.3225
     0.6935   0.6935   1.0801   1.0801   1.0887   1.0887   1.3377   1.3377
     1.9030   1.9031   2.1686   2.1686   2.5565   2.5565   2.6979   2.6979
     2.8452   2.8452   2.9161   2.9161   2.9364   2.9364   3.0430   3.0430
     3.0838   3.0838   3.0843   3.0844   3.0914   3.0914   3.1422   3.1422
     3.1588   3.1588   3.2431   3.2431  18.4390  18.4390  19.3386  19.3386
    24.8220  24.8221  25.3549  25.3549  25.4680  25.4680  26.3294  26.3294
    26.9697  26.9698  27.0732  27.0732  27.7956  27.7956  28.4349  28.4349
    28.4737  28.4737  29.3341  29.3341  30.5270  30.5270  30.5424  30.5424
    30.9972  30.9972  31.3971  31.3971  31.5622  31.5622  32.0589  32.0589
    32.1057  32.1057  32.5993  32.5993  33.4334  33.4334  34.1769  34.1769
    34.3542  34.3543  35.1662  35.1662  35.3076  35.3076  35.6084  35.6084
    37.3081  37.3081  37.4733  37.4733  37.8207  37.8207  39.3509  39.3509
    39.7621  39.7622  39.9121  39.9122  41.0828  41.0828  42.1062  42.1062
    42.1571

          k =-0.5097 0.0981 0.0000 (  5827 PWs)   bands (ev):

  -102.5031-102.4803-102.4799-102.4537 -57.7465 -57.7441 -57.7398 -57.7390
   -57.7344 -57.7317 -57.7261 -57.7227 -57.7224 -57.7162 -57.7153 -57.7123
   -23.9427 -23.6112 -23.4691 -23.4124 -23.3175 -23.0423 -23.0406 -22.8906
    -1.3768  -0.9665  -0.7087  -0.1340  -0.0396   0.0729   0.1994   0.6378
     0.8571   0.9130   0.9331   1.0963   1.2020   1.2194   1.2209   1.3763
     1.7729   1.8995   2.2840   2.3564   2.4781   2.5459   2.6053   2.6560
     2.8053   2.8396   2.8674   2.8745   2.9359   2.9573   2.9856   3.0102
     3.0223   3.0519   3.0594   3.0813   3.1030   3.1079   3.1456   3.1667
     3.2106   3.2122   3.2443   3.3034  18.0534  18.8757  19.0622  19.6993
    24.1454  24.7843  24.9809  25.1815  26.1786  26.2439  26.6882  26.7187
    26.7973  26.8705  27.0817  27.3659  27.4231  27.5295  28.0148  28.3139
    28.7625  28.8770  29.2459  29.3292  29.7327  29.8133  29.8465  30.4284
    30.5983  30.9070  30.9550  31.4138  31.6067  31.7312  31.9020  32.1217
    32.1770  32.7273  33.0635  33.4067  33.6341  33.9626  33.9711  34.4795
    34.8481  35.1250  35.1694  35.3557  35.4178  35.7744  36.1080  36.3580
    36.6145  36.9145  37.3023  37.3204  37.4246  37.8693  38.1510  38.1656
    40.0562  40.0737  40.2157  40.6192  40.7468  40.7570  41.2747  41.3814
    41.4705

          k =-0.5097 0.0981 0.1594 (  5825 PWs)   bands (ev):

  -102.5060-102.4823-102.4674-102.4551 -57.7446 -57.7436 -57.7406 -57.7389
   -57.7345 -57.7309 -57.7273 -57.7261 -57.7185 -57.7151 -57.7132 -57.7129
   -23.9091 -23.6864 -23.4682 -23.4511 -23.1980 -23.0420 -23.0409 -22.9307
    -1.3459  -1.1009  -0.5376  -0.2020   0.0534   0.1317   0.2386   0.5605
     0.6740   0.7580   0.9139   0.9370   1.1943   1.2055   1.5000   1.5659
     1.8180   1.9301   2.2151   2.3660   2.4362   2.5543   2.5911   2.6282
     2.8200   2.8420   2.8638   2.8747   2.9571   2.9843   2.9946   3.0204
     3.0305   3.0492   3.0768   3.0922   3.1012   3.1081   3.1258   3.1778
     3.1923   3.2114   3.2177   3.2611  18.1420  18.6820  19.2145  19.6256
    24.3224  24.8733  24.9141  25.0815  26.0328  26.1907  26.4048  26.6976
    26.8281  26.9683  27.0776  27.2682  27.5382  27.8453  28.0360  28.4942
    28.7753  28.8486  29.0977  29.3164  29.5941  29.9189  30.1018  30.3770
    30.5382  31.1270  31.1757  31.3476  31.4740  31.7392  31.9090  31.9423
    32.3358  32.5396  32.9615  33.2395  33.2888  33.9006  34.1655  34.6213
    34.7636  34.9878  35.1763  35.3385  35.5218  35.6406  35.8728  36.3175
    36.5236  37.0787  37.1805  37.4093  37.6036  37.8757  38.4868  39.1949
    39.3109  39.5274  40.3251  40.5528  40.6943  41.0139  41.3939  41.5427
    41.6318

          k =-0.5097 0.0981-0.3187 (  5824 PWs)   bands (ev):

  -102.4888-102.4888-102.4655-102.4655 -57.7426 -57.7426 -57.7369 -57.7369
   -57.7331 -57.7331 -57.7271 -57.7271 -57.7175 -57.7175 -57.7150 -57.7150
   -23.8149 -23.8149 -23.4647 -23.4647 -23.0423 -23.0423 -23.0413 -23.0413
    -1.2528  -1.2528  -0.3290  -0.3290   0.2165   0.2165   0.3309   0.3309
     0.5457   0.5457   0.9150   0.9150   1.2031   1.2031   1.6669   1.6669
     1.9273   1.9274   2.2015   2.2015   2.5400   2.5400   2.5771   2.5771
     2.8376   2.8376   2.8655   2.8655   2.9899   2.9899   3.0158   3.0158
     3.0502   3.0502   3.0751   3.0751   3.1322   3.1322   3.1508   3.1508
     3.1720   3.1720   3.2114   3.2114  18.3798  18.3798  19.4391  19.4392
    24.6612  24.6612  25.0182  25.0183  25.9112  25.9112  26.5691  26.5691
    26.7277  26.7277  27.3700  27.3700  27.9080  27.9080  28.2316  28.2316
    28.5397  28.5397  29.3486  29.3486  29.9584  29.9584  30.2849  30.2849
    30.8534  30.8534  31.2246  31.2246  31.5920  31.5921  31.9189  31.9189
    32.1439  32.1439  33.0735  33.0736  33.9339  33.9339  34.1423  34.1423
    34.6653  34.6653  35.0969  35.0969  35.6814  35.6814  36.1454  36.1455
    36.9017  36.9017  37.2391  37.2391  37.8328  37.8328  38.8598  38.8598
    39.7622  39.7623  40.2027  40.2028  41.0157  41.0159  41.3802  41.3804
    41.9782

     the Fermi energy is    34.9670 ev

!    total energy              =   -3024.36215653 Ry
     Harris-Foulkes estimate   =   -3024.36215704 Ry
     estimated scf accuracy    <       0.00000064 Ry

     The total energy is the sum of the following terms:

     one-electron contribution =    -448.00175745 Ry
     hartree contribution      =     412.31539491 Ry
     xc contribution           =    -273.31807929 Ry
     ewald contribution        =   -2714.79275507 Ry
     smearing contrib. (-TS)   =      -0.56495963 Ry

     convergence has been achieved in  10 iterations

     Forces acting on atoms (Ry/au):

     atom    1 type  1   force =     0.00000000    0.00000000   -0.00148911
     atom    2 type  1   force =     0.00000000    0.00000000   -0.00148911
     atom    3 type  1   force =     0.00000000    0.00000000    0.00148911
     atom    4 type  1   force =     0.00000000    0.00000000    0.00148911
     atom    5 type  2   force =     0.00000000    0.00000000    0.00000000
     atom    6 type  2   force =     0.00000000    0.00000000    0.00000000
     atom    7 type  2   force =     0.00000000    0.06499266    0.00000000
     atom    8 type  2   force =    -0.05628529    0.03249633    0.00000000
     atom    9 type  2   force =     0.05628529    0.03249633    0.00000000
     atom   10 type  2   force =    -0.05628529   -0.03249633    0.00000000
     atom   11 type  2   force =     0.05628529   -0.03249633    0.00000000
     atom   12 type  2   force =     0.00000000   -0.06499266    0.00000000

     Total force =     0.159227     Total SCF correction =     0.000000


     entering subroutine stress ...

          total   stress  (Ry/bohr**3)                   (kbar)     P= 1132.70
   0.00769731   0.00000000   0.00000000       1132.31      0.00      0.00
   0.00000000   0.00769731   0.00000000          0.00   1132.31      0.00
   0.00000000   0.00000000   0.00770517          0.00      0.00   1133.47


     number of scf cycles    =   3
     number of bfgs steps    =   2

     enthalpy old            =   -3024.8743314407 Ry
     enthalpy new            =   -3024.3621565252 Ry

     CASE: enthalpy_new > enthalpy_old

     new trust radius        =       0.2317924582 bohr

     trust_radius < trust_radius_min

     resetting bfgs history

     Message from routine bfgs:
     history already reset at previous step: stopping
     new conv_thr            =       0.0000205511 Ry

     new unit-cell volume =   1354.44795 a.u.^3 (   200.70848 Ang^3 )

CELL_PARAMETERS (alat=  9.92348860)
   1.000085047   0.000000000   0.000000000
  -0.500042523   0.866099056   0.000000000
   0.000000000   0.000000000   1.600164743

ATOMIC_POSITIONS (crystal)
Mg       0.333333000   0.666667000   0.064200932
Mg       0.666667000   0.333333000   0.564200932
Mg       0.666667000   0.333333000   0.935799068
Mg       0.333333000   0.666667000   0.435799068
Zn       0.000000000   0.000000000   0.000000000
Zn       0.000000000   0.000000000   0.500000000
Zn       0.169795223   0.339590446   0.750000000
Zn       0.830204777   0.169795223   0.250000000
Zn       0.339590446   0.169795223   0.250000000
Zn       0.660409554   0.830204777   0.750000000
Zn       0.169795223   0.830204777   0.750000000
Zn       0.830204777   0.660409554   0.250000000



     Writing output data file Prototype-La-hP12-MgZn2.save
     NEW-OLD atomic charge density approx. for the potential
     NEW k-points:
        k(    1) = (   0.0000000   0.0000000   0.0000000), wk =   0.0833333
        k(    2) = (   0.0000000   0.0000000   0.1562339), wk =   0.1666667
        k(    3) = (   0.0000000   0.0000000  -0.3124678), wk =   0.0833333
        k(    4) = (   0.0000000   0.3848674   0.0000000), wk =   0.1666667
        k(    5) = (   0.0000000   0.3848674   0.1562339), wk =   0.3333333
        k(    6) = (   0.0000000   0.3848674  -0.3124678), wk =   0.1666667
        k(    7) = (  -0.4999575  -0.2886506   0.0000000), wk =   0.0833333
        k(    8) = (  -0.4999575  -0.2886506   0.1562339), wk =   0.1666667
        k(    9) = (  -0.4999575  -0.2886506  -0.3124678), wk =   0.0833333
        k(   10) = (  -0.4999575   0.0962169   0.0000000), wk =   0.1666667
        k(   11) = (  -0.4999575   0.0962169   0.1562339), wk =   0.3333333
        k(   12) = (  -0.4999575   0.0962169  -0.3124678), wk =   0.1666667

     total cpu time spent up to now is      896.2 secs

     Self-consistent Calculation

     iteration #  1     ecut=    40.00 Ry     beta=0.70
     CG style diagonalization
     c_bands:  1 eigenvalues not converged
     c_bands:  3 eigenvalues not converged
     c_bands:  4 eigenvalues not converged
     c_bands:  1 eigenvalues not converged
     ethr =  1.00E-06,  avg # of iterations = 12.4

     total cpu time spent up to now is      951.2 secs

     total energy              =   -3024.16957762 Ry
     Harris-Foulkes estimate   =   -3025.82569575 Ry
     estimated scf accuracy    <       2.08869887 Ry

     iteration #  2     ecut=    40.00 Ry     beta=0.70
     CG style diagonalization
     ethr =  9.16E-04,  avg # of iterations =  3.8

     total cpu time spent up to now is      967.1 secs

     total energy              =   -3024.73460855 Ry
     Harris-Foulkes estimate   =   -3024.92261154 Ry
[...]
   -26.0031 -25.7607 -25.3997 -25.1332 -25.0924 -25.0923 -25.0905 -25.0905
    -3.7981  -3.1971  -2.6939  -1.8776  -1.8775  -1.7022  -1.7021  -1.6891
    -1.6890  -1.1453  -0.6970  -0.6969  -0.6248  -0.6247  -0.4641   0.3991
     0.4185   0.4185   0.4331   0.4343   0.5809   0.5810   0.7643   0.7643
     0.7843   0.8146   0.8345   0.8345   0.8735   0.8735   0.9818   0.9818
     0.9829   0.9829   1.0029   1.0074   1.0074   1.0572   1.0572   1.0788
     1.0788   1.0895   1.0895   1.1286  15.0845  16.5254  17.4862  19.8648
    22.2258  22.2259  22.2561  23.3392  23.5090  23.5091  23.7389  23.9200
    24.3975  25.0144  25.0144  25.1647  25.4061  25.4061  25.6449  25.6449
    26.9198  26.9198  27.2613  27.2613  27.3268  27.3270  29.0878  29.8873
    30.0447  30.4722  30.4723  30.6800  30.8339  30.8340  30.8936  30.9635
    31.3600  31.3601  31.7591  31.7591  31.7593  31.8206  31.8207  31.9670
    31.9671  32.2642  32.7728  32.7729  32.9576  33.5586  33.5587  34.9446
    34.9446  35.0812  35.7148  35.7148  36.6134  36.8209  36.8210  37.1587
    37.1587  37.3129  37.4519  38.0761  38.1369  38.4753  38.4756  38.9202
    39.4660

          k = 0.0000 0.0000 0.1562 (  5756 PWs)   bands (ev):

  -104.3617-104.3230-104.2804-104.2558 -59.8187 -59.8167 -59.8167 -59.8139
   -59.8139 -59.8115 -59.8091 -59.7978 -59.7978 -59.7974 -59.7974 -59.7927
   -25.9775 -25.8138 -25.3428 -25.1625 -25.0922 -25.0921 -25.0907 -25.0906
    -3.7486  -3.3764  -2.4298  -1.8649  -1.8649  -1.7752  -1.7752  -1.5591
    -1.5591  -1.4528  -1.0333  -1.0332  -0.2743  -0.2742  -0.2038   0.3232
     0.3233   0.3324   0.4324   0.4333   0.6079   0.6079   0.7295   0.7295
     0.8021   0.8052   0.8470   0.8470   0.8778   0.8779   0.9759   0.9759
     0.9771   0.9771   1.0139   1.0149   1.0149   1.0476   1.0476   1.0908
     1.0908   1.0909   1.0926   1.0926  15.2225  16.1363  17.9673  19.4796
    22.3713  22.3714  22.6893  23.0165  23.1414  23.2551  23.2552  23.9005
    25.0798  25.0798  25.3661  25.3661  25.3866  25.5879  25.8814  25.8814
    26.8019  26.8019  26.9543  26.9543  27.4725  27.4726  27.8475  29.5121
    30.1374  30.5147  30.8333  30.8334  30.8762  30.8762  31.0587  31.3596
    31.3596  31.6155  31.7843  31.7844  31.7884  31.8541  31.8542  31.9907
    31.9907  32.3340  32.7874  32.7875  32.9813  33.4689  33.4690  34.1493
    34.1493  34.8243  36.0882  36.0882  36.4504  36.4504  37.1272  37.2182
    37.2183  37.3304  37.7834  38.0703  38.1994  38.8712  38.9282  38.9283
    39.9014

          k = 0.0000 0.0000-0.3125 (  5780 PWs)   bands (ev):

  -104.3609-104.3609-104.2880-104.2880 -59.8278 -59.8278 -59.8161 -59.8161
   -59.8155 -59.8155 -59.8155 -59.8155 -59.7948 -59.7947 -59.7947 -59.7947
   -25.9072 -25.9072 -25.2418 -25.2418 -25.0913 -25.0913 -25.0912 -25.0912
    -3.6032  -3.6032  -1.9619  -1.9619  -1.8281  -1.8281  -1.8281  -1.8281
    -1.3389  -1.3389  -1.3389  -1.3389   0.0718   0.0719   0.0719   0.0719
     0.1289   0.1289   0.4342   0.4342   0.6640   0.6640   0.6640   0.6640
     0.8032   0.8032   0.8693   0.8693   0.8694   0.8694   0.9704   0.9704
     0.9704   0.9704   1.0311   1.0311   1.0327   1.0327   1.0327   1.0327
     1.0969   1.0969   1.0969   1.0969  15.6032  15.6032  18.7404  18.7405
    22.7655  22.7655  22.7656  22.7656  22.7816  22.7816  23.4847  23.4847
    25.2411  25.2411  25.2411  25.2411  26.2126  26.2126  26.3177  26.3177
    26.3177  26.3177  27.1902  27.1902  27.1903  27.1903  27.6079  27.6079
    30.5384  30.5384  31.2579  31.2579  31.2579  31.2579  31.3175  31.3175
    31.4970  31.4970  31.4970  31.4970  31.9209  31.9209  31.9209  31.9209
    32.4984  32.4984  32.7616  32.7616  32.7616  32.7616  33.5194  33.5194
    34.8214  34.8214  34.8215  34.8215  37.1191  37.1191  37.1191  37.1192
    38.0442  38.0443  38.2828  38.2829  38.5489  38.5491  38.9513  38.9516
    39.6843

          k = 0.0000 0.3849 0.0000 (  5771 PWs)   bands (ev):

  -104.3582-104.3332-104.3016-104.2805 -59.8258 -59.8243 -59.8235 -59.8191
   -59.8149 -59.8108 -59.8066 -59.8036 -59.8027 -59.8007 -59.7937 -59.7877
   -25.8847 -25.6311 -25.3998 -25.3694 -25.2354 -25.0933 -25.0916 -24.9883
    -3.2505  -2.6675  -2.6197  -1.7977  -1.7809  -1.6699  -1.5662  -1.4580
    -1.2150  -0.9629  -0.8597  -0.8271  -0.7316  -0.6381  -0.6311  -0.1363
    -0.1264  -0.0198   0.2126   0.3186   0.4092   0.5337   0.5669   0.6407
     0.7704   0.7860   0.8470   0.8670   0.8781   0.8785   0.9217   0.9684
     0.9705   0.9729   0.9850   0.9905   0.9957   1.0029   1.0582   1.0616
     1.0632   1.0967   1.1289   1.1381  15.8998  17.0269  17.3409  18.3469
    22.4413  23.1274  23.1819  23.7226  23.9990  24.2106  24.5620  24.9664
    24.9954  25.2871  25.3961  25.4285  25.6485  25.6654  26.1843  26.2388
    26.3148  27.1090  27.1932  27.2800  27.5593  27.8272  28.1328  28.2957
    28.6400  29.0623  29.3695  29.8783  29.9973  30.0272  30.2620  30.4042
    30.6761  30.7058  30.9255  31.2856  31.9615  32.0565  32.2635  32.5410
    32.6649  32.6855  33.0117  33.1360  33.1800  33.9053  33.9328  33.9703
    34.0990  34.8273  34.8805  35.0196  35.4956  35.6886  36.1754  36.4960
    37.4329  37.5818  37.7347  38.2477  38.2660  38.3452  39.2273  39.3304
    39.3648

          k = 0.0000 0.3849 0.1562 (  5777 PWs)   bands (ev):

  -104.3512-104.3400-104.3060-104.2955 -59.8256 -59.8225 -59.8209 -59.8187
   -59.8164 -59.8109 -59.8109 -59.8056 -59.8037 -59.7980 -59.7956 -59.7951
   -25.8588 -25.6887 -25.3848 -25.3701 -25.1895 -25.0930 -25.0919 -25.0171
    -3.2141  -2.9115  -2.3184  -1.8636  -1.7213  -1.6291  -1.5057  -1.4727
    -1.2581  -1.2059  -1.0986  -0.9681  -0.5793  -0.4644  -0.3840  -0.1368
    -0.1179   0.0104   0.1468   0.3197   0.3679   0.5117   0.5837   0.6317
     0.7773   0.7991   0.8476   0.8748   0.8762   0.8847   0.9339   0.9607
     0.9718   0.9775   0.9925   0.9926   0.9988   1.0139   1.0472   1.0484
     1.0763   1.0804   1.0926   1.1279  16.0046  16.7066  17.6326  18.2525
    22.6035  23.0834  23.2059  23.6268  23.9477  24.1413  24.3622  24.8110
    25.0638  25.2306  25.3136  25.4307  25.6464  26.0958  26.2180  26.4140
    26.6426  27.0581  27.1237  27.3155  27.4201  28.0449  28.1936  28.3676
    28.6804  28.7947  29.3106  29.6435  29.7622  29.9608  30.1851  30.5209
    30.6621  30.9181  30.9547  31.5639  31.8414  31.8932  31.9733  32.1587
    32.6752  32.8256  32.9072  33.0836  33.4415  33.5322  33.7107  34.2022
    34.2161  34.7617  34.7681  35.3112  35.6342  36.0673  36.2348  36.8679
    37.3265  37.5591  37.9088  38.0740  38.5044  38.6792  39.1144  39.2810
    39.6646

          k = 0.0000 0.3849-0.3125 (  5790 PWs)   bands (ev):

  -104.3504-104.3504-104.3192-104.3192 -59.8279 -59.8279 -59.8203 -59.8203
   -59.8135 -59.8135 -59.8131 -59.8131 -59.8001 -59.8001 -59.7991 -59.7991
   -25.7861 -25.7861 -25.3737 -25.3737 -25.0948 -25.0948 -25.0928 -25.0928
    -3.1022  -3.1022  -2.0196  -2.0196  -1.5751  -1.5751  -1.5370  -1.5370
    -1.3400  -1.3399  -1.1459  -1.1459  -0.4229  -0.4229  -0.1972  -0.1972
    -0.0014  -0.0014   0.1359   0.1359   0.4567   0.4567   0.6093   0.6093
     0.8034   0.8034   0.8587   0.8587   0.8802   0.8802   0.9522   0.9522
     0.9869   0.9869   0.9871   0.9871   1.0132   1.0132   1.0338   1.0338
     1.0594   1.0594   1.1017   1.1017  16.2972  16.2972  17.9893  17.9893
    22.8910  22.8910  23.4075  23.4075  23.9976  23.9976  24.3461  24.3461
    25.1717  25.1717  25.5098  25.5098  25.7602  25.7602  26.6251  26.6251
    26.8282  26.8282  27.4802  27.4802  27.7777  27.7777  28.0600  28.0600
    28.7542  28.7542  29.1196  29.1196  29.9787  29.9787  30.6645  30.6645
    30.7634  30.7635  30.9240  30.9240  31.6371  31.6371  32.4496  32.4496
    32.4824  32.4824  32.8679  32.8679  33.4207  33.4207  34.0042  34.0042
    34.4749  34.4749  35.2722  35.2723  35.7902  35.7903  36.8107  36.8108
    37.8339  37.8340  37.8413  37.8414  38.8073  38.8074  39.1723  39.1726
    39.5666

          k =-0.5000-0.2887 0.0000 (  5768 PWs)   bands (ev):

  -104.3371-104.3316-104.3093-104.2810 -59.8213 -59.8210 -59.8184 -59.8179
   -59.8157 -59.8111 -59.8104 -59.8059 -59.8010 -59.7965 -59.7964 -59.7922
   -25.8257 -25.5590 -25.4446 -25.3996 -25.3143 -25.0937 -25.0919 -24.9748
    -3.0078  -2.5907  -2.4244  -1.8374  -1.7953  -1.6578  -1.2145  -1.1916
    -1.0934  -1.0125  -0.8563  -0.8337  -0.7947  -0.7792  -0.6418  -0.5548
    -0.5161  -0.2094   0.1430   0.2522   0.4051   0.5734   0.5831   0.5922
     0.7627   0.7968   0.8391   0.8527   0.8781   0.8824   0.9015   0.9095
     0.9629   0.9682   0.9805   0.9860   0.9912   1.0006   1.0601   1.0797
     1.1104   1.1176   1.1197   1.1376  16.4395  17.0133  17.3706  17.8583
    22.3819  23.4856  23.7881  23.8153  23.9873  24.5194  24.6516  24.7894
    25.0503  25.0975  25.1227  25.2555  25.6020  25.8979  26.2196  26.4223
    27.1409  27.2889  27.3429  27.8398  28.2085  28.2764  28.7734  28.9218
    29.0298  29.0430  29.0857  29.1257  29.1357  29.3279  29.3857  30.2672
    30.4880  30.5147  30.5443  31.1152  31.3383  31.7269  32.0592  32.1202
    32.2352  32.3203  32.4164  32.4817  33.4682  33.5945  33.6121  34.2059
    34.2236  34.9217  35.1670  35.2896  35.5241  35.6438  35.9488  35.9572
    37.0510  37.5568  37.9508  38.0741  38.1388  38.9934  39.2501  39.3627
    39.3639

          k =-0.5000-0.2887 0.1562 (  5782 PWs)   bands (ev):

  -104.3557-104.3425-104.3171-104.2922 -59.8228 -59.8204 -59.8200 -59.8195
   -59.8191 -59.8154 -59.8136 -59.8130 -59.8014 -59.8007 -59.7947 -59.7933
   -25.7985 -25.6180 -25.4443 -25.4310 -25.2199 -25.0938 -25.0923 -25.0067
    -2.9784  -2.7381  -2.2409  -1.8849  -1.7335  -1.6069  -1.2916  -1.2229
    -1.2024  -1.1181  -0.8485  -0.8263  -0.8052  -0.7876  -0.6166  -0.5633
    -0.3456  -0.1083   0.0713   0.3134   0.3254   0.5360   0.5875   0.5991
     0.7820   0.8028   0.8438   0.8440   0.8691   0.8982   0.9146   0.9315
     0.9756   0.9766   0.9825   0.9881   0.9988   1.0130   1.0547   1.0672
     1.0800   1.1010   1.1065   1.1116  16.5094  16.9223  17.4262  17.7869
    22.6427  23.3364  23.7612  23.7814  24.0757  24.1250  24.3359  24.9281
    24.9976  25.0836  25.4259  25.6008  25.6009  26.1548  26.2360  26.2437
    27.0288  27.1631  27.2202  28.0166  28.3967  28.5287  28.6846  28.7283
    28.7915  28.9760  29.0624  29.0679  29.3921  29.4376  29.5819  30.1984
    30.2600  30.6066  30.6976  30.9905  31.0849  31.8635  32.0310  32.0985
    32.2964  32.3052  32.3186  32.5011  32.9084  33.2874  33.5885  34.2752
    34.5360  34.9284  35.1273  35.2124  35.3071  35.8722  35.8978  36.9736
    37.1846  37.4367  37.6899  37.9831  38.3108  39.2124  39.2199  39.4729
    39.8626

          k =-0.5000-0.2887-0.3125 (  5780 PWs)   bands (ev):

  -104.3506-104.3506-104.3018-104.3017 -59.8209 -59.8209 -59.8185 -59.8185
   -59.8151 -59.8151 -59.8130 -59.8130 -59.8011 -59.8011 -59.7963 -59.7963
   -25.7216 -25.7216 -25.4421 -25.4421 -25.0956 -25.0956 -25.0930 -25.0930
    -2.8880  -2.8880  -2.0231  -2.0231  -1.5296  -1.5296  -1.4699  -1.4699
    -1.1675  -1.1675  -0.8280  -0.8280  -0.8060  -0.8060  -0.5829  -0.5828
    -0.1072  -0.1072   0.1084   0.1084   0.4526   0.4526   0.5933   0.5933
     0.8036   0.8036   0.8527   0.8527   0.8749   0.8749   0.9570   0.9570
     0.9914   0.9914   0.9935   0.9935   1.0018   1.0018   1.0365   1.0365
     1.0588   1.0588   1.1046   1.1046  16.7031  16.7031  17.6050  17.6050
    23.1758  23.1758  23.7135  23.7136  23.7432  23.7432  24.6418  24.6418
    25.2789  25.2789  25.3935  25.3935  25.9437  25.9437  26.6740  26.6740
    26.7133  26.7133  27.4892  27.4892  28.4676  28.4676  28.6537  28.6537
    29.0370  29.0370  29.2882  29.2882  29.5638  29.5638  30.0413  30.0413
    30.1136  30.1136  30.5296  30.5296  31.4072  31.4072  32.0750  32.0750
    32.1576  32.1576  32.8132  32.8132  33.1095  33.1095  33.3801  33.3801
    34.9490  34.9490  35.0886  35.0886  35.4851  35.4851  36.9886  36.9887
    37.4866  37.4866  37.5903  37.5904  38.8967  38.8967  39.9371  39.9556
    39.9558

          k =-0.5000 0.0962 0.0000 (  5793 PWs)   bands (ev):

  -104.3722-104.3365-104.3304-104.3072 -59.8256 -59.8252 -59.8231 -59.8210
   -59.8196 -59.8164 -59.8106 -59.8088 -59.8058 -59.8048 -59.8004 -59.7930
   -25.8261 -25.5585 -25.4455 -25.3999 -25.3134 -25.0940 -25.0926 -24.9748
    -2.9636  -2.5899  -2.3866  -1.8820  -1.7799  -1.6856  -1.5845  -1.1968
    -1.0232  -0.9735  -0.9417  -0.8093  -0.7112  -0.6968  -0.6958  -0.5744
    -0.2182  -0.1091   0.2144   0.2771   0.3745   0.4482   0.4911   0.5563
     0.7736   0.7973   0.8189   0.8234   0.8741   0.8978   0.9185   0.9383
     0.9461   0.9722   0.9734   0.9948   1.0124   1.0134   1.0455   1.0496
     1.0891   1.0950   1.1176   1.1462  16.3512  17.1291  17.3040  17.9548
    22.4944  23.0843  23.3617  23.4753  24.5485  24.5659  24.9817  25.0216
    25.0822  25.1914  25.3370  25.6052  25.7033  25.7947  26.2473  26.5092
    26.8628  27.0413  27.4037  27.4978  27.8757  27.8806  27.9268  28.5268
    28.6899  28.9748  29.0732  29.3758  29.5526  29.7487  29.8339  30.0920
    30.2598  30.5838  30.8953  31.1810  31.5453  31.8732  31.8886  32.2490
    32.6922  32.9345  32.9728  33.1166  33.1969  33.4775  33.7217  33.9909
    34.2790  34.5501  34.9565  34.9945  35.0990  35.4941  35.6905  35.7270
    37.7232  37.7904  37.8973  38.4704  38.5015  38.6925  39.0614  39.3324
    39.4401

          k =-0.5000 0.0962 0.1562 (  5792 PWs)   bands (ev):

  -104.3723-104.3368-104.3259-104.3073 -59.8277 -59.8258 -59.8232 -59.8202
   -59.8193 -59.8145 -59.8127 -59.8100 -59.8037 -59.8030 -59.7982 -59.7941
   -25.7987 -25.6181 -25.4448 -25.4305 -25.2196 -25.0937 -25.0929 -25.0066
    -2.9356  -2.7135  -2.2327  -1.9388  -1.7027  -1.6347  -1.5485  -1.2666
    -1.1719  -1.1028  -0.9711  -0.9503  -0.7174  -0.6981  -0.4598  -0.4035
    -0.1828  -0.0844   0.1545   0.2739   0.3442   0.4593   0.4859   0.5295
     0.7832   0.8005   0.8160   0.8238   0.8888   0.9176   0.9242   0.9447
     0.9535   0.9706   0.9869   1.0005   1.0076   1.0121   1.0272   1.0680
     1.0746   1.0901   1.0983   1.1165  16.4338  16.9381  17.4632  17.8775
    22.6704  23.1886  23.2765  23.4120  24.3850  24.4970  24.7093  24.9928
    25.0940  25.2449  25.3548  25.5500  25.7953  26.1132  26.2624  26.6584
    26.9755  27.0335  27.2421  27.4463  27.7282  27.9865  28.1779  28.4708
    28.6475  29.1680  29.2021  29.4046  29.4993  29.6994  29.8688  29.8850
    30.2757  30.5185  30.8407  31.1044  31.1511  31.8106  31.9650  32.4140
    32.5865  32.7911  32.9394  33.1119  33.1849  33.4150  33.5659  33.9698
    34.2363  34.7074  34.8201  35.0409  35.2415  35.4652  36.1128  36.7867
    37.0591  37.2859  38.0664  38.3885  38.5543  38.8095  39.1665  39.3784
    39.4620

          k =-0.5000 0.0962-0.3125 (  5796 PWs)   bands (ev):

  -104.3524-104.3524-104.3262-104.3262 -59.8246 -59.8246 -59.8190 -59.8190
   -59.8185 -59.8185 -59.8141 -59.8141 -59.8048 -59.8048 -59.7989 -59.7989
   -25.7219 -25.7219 -25.4419 -25.4419 -25.0954 -25.0954 -25.0933 -25.0933
    -2.8511  -2.8511  -2.0504  -2.0504  -1.5609  -1.5609  -1.4666  -1.4666
    -1.2839  -1.2839  -0.9713  -0.9713  -0.7038  -0.7038  -0.3127  -0.3127
    -0.0868  -0.0868   0.1320   0.1320   0.4376   0.4376   0.4813   0.4813
     0.7972   0.7972   0.8178   0.8178   0.9165   0.9165   0.9411   0.9411
     0.9700   0.9700   0.9895   0.9895   1.0235   1.0235   1.0457   1.0457
     1.0623   1.0623   1.0880   1.0880  16.6535  16.6535  17.6882  17.6883
    23.0168  23.0168  23.3623  23.3624  24.2099  24.2099  24.8594  24.8594
    25.0212  25.0212  25.6563  25.6563  26.1044  26.1044  26.4753  26.4753
    26.7438  26.7438  27.5013  27.5013  28.0763  28.0763  28.4142  28.4142
    28.7975  28.7975  29.2189  29.2189  29.6279  29.6279  29.9390  29.9390
    30.0846  30.0846  30.9499  30.9499  31.8417  31.8417  31.9670  31.9670
    32.3840  32.3840  32.8474  32.8474  33.4312  33.4312  33.8659  33.8659
    34.5473  34.5473  34.8785  34.8785  35.4123  35.4123  36.6287  36.6287
    37.4489  37.4489  38.0815  38.0816  38.8075  38.8076  39.0817  39.0819
    39.7396

     the Fermi energy is    32.7562 ev

!    total energy              =   -3024.79345398 Ry
     Harris-Foulkes estimate   =   -3024.79345943 Ry
     estimated scf accuracy    <       0.00000605 Ry

     The total energy is the sum of the following terms:

     one-electron contribution =    -521.58352243 Ry
     hartree contribution      =     431.78058632 Ry
     xc contribution           =    -271.82605610 Ry
     ewald contribution        =   -2662.55430223 Ry
     smearing contrib. (-TS)   =      -0.61015953 Ry

     convergence has been achieved in  12 iterations

     Forces acting on atoms (Ry/au):

     atom    1 type  1   force =     0.00000000    0.00000000   -0.00747606
     atom    2 type  1   force =     0.00000000    0.00000000   -0.00747606
     atom    3 type  1   force =     0.00000000    0.00000000    0.00747606
     atom    4 type  1   force =     0.00000000    0.00000000    0.00747606
     atom    5 type  2   force =     0.00000000    0.00000000    0.00000000
     atom    6 type  2   force =     0.00000000    0.00000000    0.00000000
     atom    7 type  2   force =     0.00000000    0.04323738    0.00000000
     atom    8 type  2   force =    -0.03744467    0.02161869    0.00000000
     atom    9 type  2   force =     0.03744467    0.02161869    0.00000000
     atom   10 type  2   force =    -0.03744467   -0.02161869    0.00000000
     atom   11 type  2   force =     0.03744467   -0.02161869    0.00000000
     atom   12 type  2   force =     0.00000000   -0.04323738    0.00000000

     Total force =     0.106960     Total SCF correction =     0.000000


     entering subroutine stress ...

          total   stress  (Ry/bohr**3)                   (kbar)     P=  652.28
   0.00446913   0.00000000   0.00000000        657.43      0.00      0.00
   0.00000000   0.00446913   0.00000000          0.00    657.43      0.00
   0.00000000   0.00000000   0.00436416          0.00      0.00    641.99


     Writing output data file Prototype-La-hP12-MgZn2.save
 
     init_run     :      5.45s CPU      6.50s WALL (       2 calls)
     electrons    :   1358.40s CPU   1558.15s WALL (       5 calls)
     update_pot   :      2.93s CPU      2.95s WALL (       3 calls)
     forces       :      6.48s CPU      6.75s WALL (       5 calls)
     stress       :     20.01s CPU     20.41s WALL (       5 calls)

     Called by init_run:
     wfcinit      :      4.36s CPU      5.38s WALL (       2 calls)
     potinit      :      0.49s CPU      0.49s WALL (       2 calls)

     Called by electrons:
     c_bands      :   1328.30s CPU   1516.55s WALL (      49 calls)
     sum_band     :     29.54s CPU     40.04s WALL (      49 calls)
     v_of_rho     :      0.12s CPU      0.14s WALL (      54 calls)
     mix_rho      :      0.12s CPU      0.14s WALL (      49 calls)

     Called by c_bands:
     init_us_2    :      2.13s CPU      2.50s WALL (    1320 calls)
     ccgdiagg     :   1215.56s CPU   1375.83s WALL (     677 calls)
     wfcrot       :    114.95s CPU    142.04s WALL (     689 calls)

     Called by *cgdiagg:
     h_psi        :    843.67s CPU   1024.98s WALL (  454441 calls)
     cdiaghg      :      6.42s CPU      7.03s WALL (     689 calls)

     Called by h_psi:
     add_vuspsi   :    175.80s CPU    188.27s WALL (  454441 calls)

     General routines
     calbec       :    399.91s CPU    424.93s WALL (  908313 calls)
     fft          :      0.14s CPU      0.18s WALL (     239 calls)
     fftw         :    414.10s CPU    533.36s WALL ( 1176846 calls)
     davcio       :      1.29s CPU      3.65s WALL (    1908 calls)
 
     Parallel routines
     fft_scatter  :    156.88s CPU    211.56s WALL ( 1177085 calls)
 
     PWSCF        : 23m13.68s CPU    26m35.61s WALL

 
   This run was terminated on:  10:37: 3  22Mar2018            

=------------------------------------------------------------------------------=
   JOB DONE.
=------------------------------------------------------------------------------=
