
     Program PWSCF v.5.0.2 starts on 22Mar2018 at 21:15:18 

     This program is part of the open-source Quantum ESPRESSO suite
     for quantum simulation of materials; please cite
         "P. Giannozzi et al., J. Phys.:Condens. Matter 21 395502 (2009);
          URL http://www.quantum-espresso.org", 
     in publications or presentations arising from this work. More details at
     http://www.quantum-espresso.org/quote.php

     Parallel version (MPI), running on     4 processors
     R & G space division:  proc/nbgrp/npool/nimage =       4

     Current dimensions of program PWSCF are:
     Max number of different atomic species (ntypx) = 10
     Max number of k-points (npk) =  40000
     Max angular momentum in pseudopotentials (lmaxx) =  3
     Waiting for input...
     Reading input from standard input

     Subspace diagonalization in iterative solution of the eigenvalue problem:
     a serial algorithm will be used

 
     Parallelization info
     --------------------
     sticks:   dense  smooth     PW     G-vecs:    dense   smooth      PW
     Min          93      93     30                 1717     1717     310
     Max          94      94     31                 1720     1720     313
     Sum         373     373    121                 6871     6871    1247
 


     bravais-lattice index     =            0
     lattice parameter (alat)  =       5.4125  a.u.
     unit-cell volume          =     202.7222 (a.u.)^3
     number of atoms/cell      =            2
     number of atomic types    =            2
     number of electrons       =        36.00
     number of Kohn-Sham states=           22
     kinetic-energy cutoff     =      40.0000  Ry
     charge density cutoff     =     160.0000  Ry
     convergence threshold     =      1.0E-04
     mixing beta               =       0.7000
     number of iterations used =            8  plain     mixing
     Exchange-correlation      = SLA-PZ-NOGX-NOGC ( 1 1 0 0 0)
     EXX-fraction              =        0.00
     nstep                     =           50


     celldm(1)=   5.412493  celldm(2)=   0.000000  celldm(3)=   0.000000
     celldm(4)=   0.000000  celldm(5)=   0.000000  celldm(6)=   0.000000

     crystal axes: (cart. coord. in units of alat)
               a(1) = (   1.000000   0.000000   0.000000 )  
               a(2) = (   0.000000   1.000000   0.000000 )  
               a(3) = (   0.000000   0.000000   1.278525 )  

     reciprocal axes: (cart. coord. in units 2 pi/alat)
               b(1) = (  1.000000  0.000000  0.000000 )  
               b(2) = (  0.000000  1.000000  0.000000 )  
               b(3) = (  0.000000  0.000000  0.782151 )  


     PseudoPot. # 1 for Eu read from file:
     /home/cwx6513/pp.La/Eu.UPF
     MD5 check sum: 5efdbbfc50c6a10138933a6429836ad2
     Pseudo is Norm-conserving, Zval = 17.0
     Generated in analytical, separable form
     Using radial grid of 1261 points,  6 beta functions with: 
                l(1) =   0
                l(2) =   0
                l(3) =   1
                l(4) =   1
                l(5) =   2
                l(6) =   3

     PseudoPot. # 2 for Tb read from file:
     /home/cwx6513/pp.La/Tb.UPF
     MD5 check sum: 3d6088a3f0cf7fd2e110c43f7f8e95c2
     Pseudo is Norm-conserving, Zval = 19.0
     Generated in analytical, separable form
     Using radial grid of 1263 points,  6 beta functions with: 
                l(1) =   0
                l(2) =   0
                l(3) =   1
                l(4) =   1
                l(5) =   2
                l(6) =   3

     atomic species   valence    mass     pseudopotential
        Cu            17.00    63.54600     Eu( 1.00)
        Au            19.00   196.96600     Tb( 1.00)

     16 Sym. Ops., with inversion, found



   Cartesian axes

     site n.     atom                  positions (alat units)
         1           Cu  tau(   1) = (   0.5000000   0.5000000   0.6392626  )
         2           Au  tau(   2) = (   0.0000000   0.0000000   0.0000000  )

     number of k points=   100  gaussian smearing, width (Ry)=  0.1000

     Number of k-points >= 100: set verbosity='high' to print them.

     Dense  grid:     6871 G-vectors     FFT dimensions: (  24,  24,  27)

     Largest allocated arrays     est. size (Mb)     dimensions
        Kohn-Sham Wavefunctions         0.08 Mb     (    228,   22)
        NL pseudopotentials             0.14 Mb     (    228,   40)
        Each V/rho on FFT grid          0.06 Mb     (   4032)
        Each G-vector array             0.01 Mb     (   1720)
        G-vector shells                 0.01 Mb     (   1720)
     Largest temporary arrays     est. size (Mb)     dimensions
        Each subspace H/S matrix        0.01 Mb     (  22,  22)
        Each <psi_i|beta_j> matrix      0.01 Mb     (     40,   22)
        Arrays for rho mixing           0.49 Mb     (   4032,   8)

     Initial potential from superposition of free atoms

     Starting from uniform charge
     Starting wfc are    0 randomized atomic wfcs

     total cpu time spent up to now is        0.7 secs

     Self-consistent Calculation

     iteration #  1     ecut=    40.00 Ry     beta=0.70
     CG style diagonalization
     ethr =  1.00E-02,  avg # of iterations = 10.5

     total cpu time spent up to now is        5.2 secs

     total energy              =    -369.96962737 Ry
     Harris-Foulkes estimate   =    -459.15621687 Ry
     estimated scf accuracy    <     117.31053370 Ry

     iteration #  2     ecut=    40.00 Ry     beta=0.70
     CG style diagonalization
     ethr =  1.00E-02,  avg # of iterations =  7.3

     total cpu time spent up to now is        8.2 secs

     total energy              =    -396.21389380 Ry
     Harris-Foulkes estimate   =    -411.39233110 Ry
     estimated scf accuracy    <      21.57951108 Ry

     iteration #  3     ecut=    40.00 Ry     beta=0.70
     CG style diagonalization
     ethr =  1.00E-02,  avg # of iterations =  5.3

     total cpu time spent up to now is       10.4 secs

     total energy              =    -402.66429679 Ry
     Harris-Foulkes estimate   =    -406.96034586 Ry
     estimated scf accuracy    <       9.22273388 Ry

     iteration #  4     ecut=    40.00 Ry     beta=0.70
     CG style diagonalization
     ethr =  1.00E-02,  avg # of iterations =  3.7

     total cpu time spent up to now is       12.0 secs

     total energy              =    -404.12359988 Ry
     Harris-Foulkes estimate   =    -404.24788028 Ry
     estimated scf accuracy    <       0.22420252 Ry

     iteration #  5     ecut=    40.00 Ry     beta=0.70
     CG style diagonalization
     ethr =  6.23E-04,  avg # of iterations =  4.2

     total cpu time spent up to now is       13.9 secs

     total energy              =    -404.21398840 Ry
     Harris-Foulkes estimate   =    -404.22314294 Ry
     estimated scf accuracy    <       0.04089823 Ry

     iteration #  6     ecut=    40.00 Ry     beta=0.70
     CG style diagonalization
     c_bands:  1 eigenvalues not converged
     ethr =  1.14E-04,  avg # of iterations =  3.6

     total cpu time spent up to now is       15.3 secs

     total energy              =    -404.20838180 Ry
     Harris-Foulkes estimate   =    -404.21962694 Ry
     estimated scf accuracy    <       0.02241859 Ry

     iteration #  7     ecut=    40.00 Ry     beta=0.70
     CG style diagonalization
     ethr =  6.23E-05,  avg # of iterations =  3.4

     total cpu time spent up to now is       16.7 secs

     total energy              =    -404.21286646 Ry
     Harris-Foulkes estimate   =    -404.21305990 Ry
     estimated scf accuracy    <       0.00040663 Ry

     iteration #  8     ecut=    40.00 Ry     beta=0.70
     CG style diagonalization
     c_bands:  1 eigenvalues not converged
     c_bands:  1 eigenvalues not converged
     c_bands:  1 eigenvalues not converged
     c_bands:  1 eigenvalues not converged
     c_bands:  1 eigenvalues not converged
     ethr =  1.13E-06,  avg # of iterations =  4.7

     total cpu time spent up to now is       18.6 secs

     End of self-consistent calculation

     Number of k-points >= 100: set verbosity='high' to print the bands.

     the Fermi energy is    33.4917 ev

!    total energy              =    -404.21300550 Ry
     Harris-Foulkes estimate   =    -404.21304365 Ry
     estimated scf accuracy    <       0.00004535 Ry

     The total energy is the sum of the following terms:

     one-electron contribution =       0.34493315 Ry
     hartree contribution      =      38.62552158 Ry
     xc contribution           =     -41.06810277 Ry
     ewald contribution        =    -402.03481526 Ry
     smearing contrib. (-TS)   =      -0.08054220 Ry

     convergence has been achieved in   8 iterations

     Forces acting on atoms (Ry/au):

     atom    1 type  1   force =     0.00000000    0.00000000    0.00000000
     atom    2 type  2   force =     0.00000000    0.00000000    0.00000000

     Total force =     0.000000     Total SCF correction =     0.000000


     entering subroutine stress ...

          total   stress  (Ry/bohr**3)                   (kbar)     P=  934.16
   0.00609868   0.00000000   0.00000000        897.15      0.00      0.00
   0.00000000   0.00609868   0.00000000          0.00    897.15      0.00
   0.00000000   0.00000000   0.00685351          0.00      0.00   1008.19


     BFGS Geometry Optimization

     number of scf cycles    =   1
     number of bfgs steps    =   0

     enthalpy new            =    -404.2130055001 Ry

     new trust radius        =       0.4879034572 bohr
     new conv_thr            =       0.0001000000 Ry

     new unit-cell volume =    315.38452 a.u.^3 (    46.73516 Ang^3 )

CELL_PARAMETERS (alat=  5.41249258)
   1.152466984   0.000000000   0.000000000
   0.000000000   1.152466984   0.000000000
   0.000000000   0.000000000   1.497584851

ATOMIC_POSITIONS (crystal)
Cu       0.500000000   0.500000000   0.500000000
Au       0.000000000   0.000000000   0.000000000



     Writing output data file Prototype-La-tP2-AuCu.save
     NEW-OLD atomic charge density approx. for the potential
     NEW k-points: (use verbosity='high' to print them)

     total cpu time spent up to now is       20.0 secs

     Self-consistent Calculation

     iteration #  1     ecut=    40.00 Ry     beta=0.70
     CG style diagonalization
     c_bands:  1 eigenvalues not converged
     c_bands:  1 eigenvalues not converged
     c_bands:  1 eigenvalues not converged
     c_bands:  1 eigenvalues not converged
     c_bands:  1 eigenvalues not converged
     c_bands:  4 eigenvalues not converged
     c_bands:  3 eigenvalues not converged
     c_bands:  4 eigenvalues not converged
     c_bands:  1 eigenvalues not converged
     c_bands:  4 eigenvalues not converged
     c_bands:  3 eigenvalues not converged
     c_bands:  4 eigenvalues not converged
     c_bands:  4 eigenvalues not converged
     c_bands:  3 eigenvalues not converged
     c_bands:  5 eigenvalues not converged
     c_bands:  5 eigenvalues not converged
     c_bands:  3 eigenvalues not converged
     c_bands:  5 eigenvalues not converged
     c_bands:  1 eigenvalues not converged
     c_bands:  1 eigenvalues not converged
     c_bands:  1 eigenvalues not converged
     c_bands:  2 eigenvalues not converged
     c_bands:  1 eigenvalues not converged
     c_bands:  1 eigenvalues not converged
     c_bands:  1 eigenvalues not converged
     c_bands:  2 eigenvalues not converged
     c_bands:  4 eigenvalues not converged
     c_bands:  3 eigenvalues not converged
     c_bands:  2 eigenvalues not converged
     c_bands:  3 eigenvalues not converged
     c_bands:  5 eigenvalues not converged
     c_bands:  5 eigenvalues not converged
     c_bands:  5 eigenvalues not converged
     c_bands:  1 eigenvalues not converged
     c_bands:  3 eigenvalues not converged
     c_bands:  1 eigenvalues not converged
     c_bands:  3 eigenvalues not converged
     c_bands:  5 eigenvalues not converged
     c_bands:  5 eigenvalues not converged
     c_bands:  4 eigenvalues not converged
     c_bands:  4 eigenvalues not converged
     c_bands:  4 eigenvalues not converged
     c_bands:  4 eigenvalues not converged
     c_bands:  5 eigenvalues not converged
     c_bands:  2 eigenvalues not converged
     c_bands:  4 eigenvalues not converged
     c_bands:  2 eigenvalues not converged
     c_bands:  5 eigenvalues not converged
     c_bands:  2 eigenvalues not converged
     c_bands:  1 eigenvalues not converged
     c_bands:  5 eigenvalues not converged
     c_bands:  3 eigenvalues not converged
     c_bands:  3 eigenvalues not converged
     c_bands:  2 eigenvalues not converged
     c_bands:  4 eigenvalues not converged
     c_bands:  5 eigenvalues not converged
     c_bands:  4 eigenvalues not converged
     c_bands:  5 eigenvalues not converged
     c_bands:  5 eigenvalues not converged
     c_bands:  5 eigenvalues not converged
     c_bands:  1 eigenvalues not converged
     c_bands:  3 eigenvalues not converged
     c_bands:  5 eigenvalues not converged
     ethr =  1.00E-06,  avg # of iterations = 16.3

     total cpu time spent up to now is       27.4 secs

     total energy              =    -395.24650154 Ry
     Harris-Foulkes estimate   =    -413.39642232 Ry
     estimated scf accuracy    <      23.41409734 Ry

     iteration #  2     ecut=    40.00 Ry     beta=0.70
     CG style diagonalization
     ethr =  1.00E-02,  avg # of iterations =  4.4

     total cpu time spent up to now is       29.4 secs

     total energy              =    -401.43477396 Ry
     Harris-Foulkes estimate   =    -406.78585998 Ry
     estimated scf accuracy    <       9.08788574 Ry

     iteration #  3     ecut=    40.00 Ry     beta=0.70
     CG style diagonalization
     ethr =  1.00E-02,  avg # of iterations =  4.1

     total cpu time spent up to now is       31.2 secs

     total energy              =    -403.15101565 Ry
     Harris-Foulkes estimate   =    -404.36747167 Ry
     estimated scf accuracy    <       2.91272380 Ry

     iteration #  4     ecut=    40.00 Ry     beta=0.70
     CG style diagonalization
     ethr =  8.09E-03,  avg # of iterations =  3.2

     total cpu time spent up to now is       32.6 secs

     total energy              =    -403.79988364 Ry
     Harris-Foulkes estimate   =    -403.82596656 Ry
     estimated scf accuracy    <       0.07955392 Ry

     iteration #  5     ecut=    40.00 Ry     beta=0.70
     CG style diagonalization
     ethr =  2.21E-04,  avg # of iterations =  3.6

     total cpu time spent up to now is       34.0 secs

     total energy              =    -403.80427316 Ry
     Harris-Foulkes estimate   =    -403.81381763 Ry
     estimated scf accuracy    <       0.02210338 Ry

     iteration #  6     ecut=    40.00 Ry     beta=0.70
     CG style diagonalization
     ethr =  6.14E-05,  avg # of iterations =  3.4

     total cpu time spent up to now is       35.3 secs

     total energy              =    -403.80892164 Ry
     Harris-Foulkes estimate   =    -403.80901021 Ry
     estimated scf accuracy    <       0.00033895 Ry

     iteration #  7     ecut=    40.00 Ry     beta=0.70
     CG style diagonalization
     c_bands:  1 eigenvalues not converged
     c_bands:  1 eigenvalues not converged
     c_bands:  1 eigenvalues not converged
     c_bands:  1 eigenvalues not converged
     ethr =  9.42E-07,  avg # of iterations =  4.0

     total cpu time spent up to now is       37.0 secs

     total energy              =    -403.80897805 Ry
     Harris-Foulkes estimate   =    -403.80901046 Ry
     estimated scf accuracy    <       0.00019625 Ry

     iteration #  8     ecut=    40.00 Ry     beta=0.70
     CG style diagonalization
     ethr =  5.45E-07,  avg # of iterations =  3.0

     total cpu time spent up to now is       38.2 secs

     End of self-consistent calculation

     Number of k-points >= 100: set verbosity='high' to print the bands.

     the Fermi energy is    19.0203 ev

!    total energy              =    -403.80889156 Ry
     Harris-Foulkes estimate   =    -403.80898433 Ry
     estimated scf accuracy    <       0.00009884 Ry

     The total energy is the sum of the following terms:

     one-electron contribution =     -77.61118986 Ry
     hartree contribution      =      60.65011199 Ry
     xc contribution           =     -39.75792647 Ry
     ewald contribution        =    -346.96347969 Ry
     smearing contrib. (-TS)   =      -0.12640753 Ry

     convergence has been achieved in   8 iterations

     Forces acting on atoms (Ry/au):

     atom    1 type  1   force =     0.00000000    0.00000000    0.00000000
     atom    2 type  2   force =     0.00000000    0.00000000    0.00000000

     Total force =     0.000000     Total SCF correction =     0.000000


     entering subroutine stress ...

          total   stress  (Ry/bohr**3)                   (kbar)     P=-1238.96
  -0.00840650   0.00000000   0.00000000      -1236.64      0.00      0.00
   0.00000000  -0.00840650   0.00000000          0.00  -1236.64      0.00
   0.00000000   0.00000000  -0.00845376          0.00      0.00  -1243.59


     number of scf cycles    =   2
     number of bfgs steps    =   1

     enthalpy old            =    -404.2130055001 Ry
     enthalpy new            =    -403.8088915631 Ry

     CASE: enthalpy_new > enthalpy_old

     new trust radius        =       0.1567682003 bohr

     trust_radius < trust_radius_min

     resetting bfgs history

     new conv_thr            =       0.0001000000 Ry

     new unit-cell volume =    298.05724 a.u.^3 (    44.16753 Ang^3 )

CELL_PARAMETERS (alat=  5.41249258)
   1.130164824   0.000000000   0.000000000
   0.000000000   1.130164824   0.000000000
   0.000000000   0.000000000   1.471716497

ATOMIC_POSITIONS (crystal)
Cu       0.500000000   0.500000000   0.500000000
Au       0.000000000   0.000000000   0.000000000



     Writing output data file Prototype-La-tP2-AuCu.save
     NEW-OLD atomic charge density approx. for the potential
     NEW k-points: (use verbosity='high' to print them)

     total cpu time spent up to now is       39.0 secs

     Self-consistent Calculation

     iteration #  1     ecut=    40.00 Ry     beta=0.70
     CG style diagonalization
     c_bands:  1 eigenvalues not converged
     c_bands:  1 eigenvalues not converged
     c_bands:  1 eigenvalues not converged
     c_bands:  1 eigenvalues not converged
     c_bands:  1 eigenvalues not converged
     c_bands:  2 eigenvalues not converged
     c_bands:  1 eigenvalues not converged
     c_bands:  1 eigenvalues not converged
     ethr =  1.00E-06,  avg # of iterations =  8.3

     total cpu time spent up to now is       43.1 secs

     total energy              =    -403.77054098 Ry
     Harris-Foulkes estimate   =    -404.12350484 Ry
     estimated scf accuracy    <       0.44863710 Ry

     iteration #  2     ecut=    40.00 Ry     beta=0.70
     CG style diagonalization
     ethr =  1.25E-03,  avg # of iterations =  3.8

     total cpu time spent up to now is       45.3 secs

     total energy              =    -403.91735471 Ry
     Harris-Foulkes estimate   =    -404.00643179 Ry
     estimated scf accuracy    <       0.15364699 Ry

     iteration #  3     ecut=    40.00 Ry     beta=0.70
     CG style diagonalization
     ethr =  4.27E-04,  avg # of iterations =  3.5

     total cpu time spent up to now is       46.8 secs

     total energy              =    -403.94623458 Ry
     Harris-Foulkes estimate   =    -403.94794779 Ry
     estimated scf accuracy    <       0.00265141 Ry

     iteration #  4     ecut=    40.00 Ry     beta=0.70
     CG style diagonalization
     ethr =  7.37E-06,  avg # of iterations =  4.0

     total cpu time spent up to now is       48.4 secs

     total energy              =    -403.94726401 Ry
     Harris-Foulkes estimate   =    -403.94864461 Ry
     estimated scf accuracy    <       0.00358774 Ry

     iteration #  5     ecut=    40.00 Ry     beta=0.70
     CG style diagonalization
     ethr =  7.37E-06,  avg # of iterations =  3.3

     total cpu time spent up to now is       49.9 secs

     End of self-consistent calculation

     Number of k-points >= 100: set verbosity='high' to print the bands.

     the Fermi energy is    20.5291 ev

!    total energy              =    -403.94777149 Ry
     Harris-Foulkes estimate   =    -403.94782310 Ry
     estimated scf accuracy    <       0.00006034 Ry

     The total energy is the sum of the following terms:

     one-electron contribution =     -67.97144978 Ry
     hartree contribution      =      57.57677110 Ry
     xc contribution           =     -39.87185293 Ry
     ewald contribution        =    -353.56070213 Ry
     smearing contrib. (-TS)   =      -0.12053775 Ry

     convergence has been achieved in   5 iterations

     Forces acting on atoms (Ry/au):

     atom    1 type  1   force =     0.00000000    0.00000000    0.00000000
     atom    2 type  2   force =     0.00000000    0.00000000    0.00000000

     Total force =     0.000000     Total SCF correction =     0.000000


     entering subroutine stress ...

          total   stress  (Ry/bohr**3)                   (kbar)     P=-1156.31
  -0.00784423   0.00000000   0.00000000      -1153.93      0.00      0.00
   0.00000000  -0.00784423   0.00000000          0.00  -1153.93      0.00
   0.00000000   0.00000000  -0.00789293          0.00      0.00  -1161.09


     number of scf cycles    =   3
     number of bfgs steps    =   1

     enthalpy old            =    -404.2130055001 Ry
     enthalpy new            =    -403.9477714920 Ry

     CASE: enthalpy_new > enthalpy_old

     new trust radius        =       0.1512109819 bohr

     trust_radius < trust_radius_min

     resetting bfgs history

     Message from routine bfgs:
     history already reset at previous step: stopping
     new conv_thr            =       0.0001000000 Ry

     new unit-cell volume =    300.12535 a.u.^3 (    44.47399 Ang^3 )

CELL_PARAMETERS (alat=  5.41249258)
   1.132452730   0.000000000   0.000000000
   0.000000000   1.132452730   0.000000000
   0.000000000   0.000000000   1.475946359

ATOMIC_POSITIONS (crystal)
Cu       0.500000000   0.500000000   0.500000000
Au       0.000000000   0.000000000   0.000000000



     Writing output data file Prototype-La-tP2-AuCu.save
     NEW-OLD atomic charge density approx. for the potential
     NEW k-points: (use verbosity='high' to print them)

     total cpu time spent up to now is       50.8 secs

     Self-consistent Calculation

     iteration #  1     ecut=    40.00 Ry     beta=0.70
     CG style diagonalization
     c_bands:  1 eigenvalues not converged
     ethr =  1.00E-06,  avg # of iterations =  5.5

     total cpu time spent up to now is       53.0 secs

     total energy              =    -403.92857594 Ry
     Harris-Foulkes estimate   =    -403.93505966 Ry
     estimated scf accuracy    <       0.00827216 Ry

     iteration #  2     ecut=    40.00 Ry     beta=0.70
     CG style diagonalization
     ethr =  2.30E-05,  avg # of iterations =  3.8

     total cpu time spent up to now is       54.5 secs

     total energy              =    -403.93121417 Ry
     Harris-Foulkes estimate   =    -403.93300867 Ry
     estimated scf accuracy    <       0.00314635 Ry

     iteration #  3     ecut=    40.00 Ry     beta=0.70
     CG style diagonalization
     ethr =  8.74E-06,  avg # of iterations =  3.5

     total cpu time spent up to now is       55.9 secs

     total energy              =    -403.93180507 Ry
     Harris-Foulkes estimate   =    -403.93190394 Ry
     estimated scf accuracy    <       0.00019693 Ry

     iteration #  4     ecut=    40.00 Ry     beta=0.70
     CG style diagonalization
     ethr =  5.47E-07,  avg # of iterations =  3.4

     total cpu time spent up to now is       57.4 secs

     End of self-consistent calculation

     Number of k-points >= 100: set verbosity='high' to print the bands.

     the Fermi energy is    20.3346 ev

!    total energy              =    -403.93185284 Ry
     Harris-Foulkes estimate   =    -403.93187226 Ry
     estimated scf accuracy    <       0.00002138 Ry

     The total energy is the sum of the following terms:

     one-electron contribution =     -69.19960328 Ry
     hartree contribution      =      58.00029686 Ry
     xc contribution           =     -39.86458668 Ry
     ewald contribution        =    -352.74671991 Ry
     smearing contrib. (-TS)   =      -0.12123983 Ry

     convergence has been achieved in   4 iterations

     Forces acting on atoms (Ry/au):

     atom    1 type  1   force =     0.00000000    0.00000000    0.00000000
     atom    2 type  2   force =     0.00000000    0.00000000    0.00000000

     Total force =     0.000000     Total SCF correction =     0.000000


     entering subroutine stress ...

          total   stress  (Ry/bohr**3)                   (kbar)     P=-1140.50
  -0.00772676   0.00000000   0.00000000      -1136.65      0.00      0.00
   0.00000000  -0.00772676   0.00000000          0.00  -1136.65      0.00
   0.00000000   0.00000000  -0.00780545          0.00      0.00  -1148.22


     The maximum number of steps has been reached.

     End of BFGS Geometry Optimization
Begin final coordinates
     new unit-cell volume =    300.12535 a.u.^3 (    44.47399 Ang^3 )

CELL_PARAMETERS (alat=  5.41249258)
   1.132452730   0.000000000   0.000000000
   0.000000000   1.132452730   0.000000000
   0.000000000   0.000000000   1.475946359

ATOMIC_POSITIONS (crystal)
Cu       0.500000000   0.500000000   0.500000000
Au       0.000000000   0.000000000   0.000000000
End final coordinates



     A final scf calculation at the relaxed structure.
     The G-vectors are recalculated for the final unit cell
     Results may differ from those at the preceding step.
 
     Parallelization info
     --------------------
     sticks:   dense  smooth     PW     G-vecs:    dense   smooth      PW
     Min         120     120     36                 2570     2570     454
     Max         121     121     37                 2575     2575     457
     Sum         481     481    145                10289    10289    1819
 


     bravais-lattice index     =            0
     lattice parameter (alat)  =       5.4125  a.u.
     unit-cell volume          =     300.1254 (a.u.)^3
     number of atoms/cell      =            2
     number of atomic types    =            2
     number of electrons       =        36.00
     number of Kohn-Sham states=           22
     kinetic-energy cutoff     =      40.0000  Ry
     charge density cutoff     =     160.0000  Ry
     convergence threshold     =      1.0E-04
     mixing beta               =       0.7000
     number of iterations used =            8  plain     mixing
     Exchange-correlation      = SLA-PZ-NOGX-NOGC ( 1 1 0 0 0)
     EXX-fraction              =        0.00

     celldm(1)=   5.412493  celldm(2)=   0.000000  celldm(3)=   0.000000
     celldm(4)=   0.000000  celldm(5)=   0.000000  celldm(6)=   0.000000

     crystal axes: (cart. coord. in units of alat)
               a(1) = (   1.132453   0.000000   0.000000 )  
               a(2) = (   0.000000   1.132453   0.000000 )  
               a(3) = (   0.000000   0.000000   1.475946 )  

     reciprocal axes: (cart. coord. in units 2 pi/alat)
               b(1) = (  0.883039  0.000000  0.000000 )  
               b(2) = (  0.000000  0.883039  0.000000 )  
               b(3) = (  0.000000  0.000000  0.677531 )  


     PseudoPot. # 1 for Eu read from file:
     /home/cwx6513/pp.La/Eu.UPF
     MD5 check sum: 5efdbbfc50c6a10138933a6429836ad2
     Pseudo is Norm-conserving, Zval = 17.0
     Generated in analytical, separable form
     Using radial grid of 1261 points,  6 beta functions with: 
                l(1) =   0
                l(2) =   0
                l(3) =   1
                l(4) =   1
                l(5) =   2
                l(6) =   3

     PseudoPot. # 2 for Tb read from file:
     /home/cwx6513/pp.La/Tb.UPF
     MD5 check sum: 3d6088a3f0cf7fd2e110c43f7f8e95c2
     Pseudo is Norm-conserving, Zval = 19.0
     Generated in analytical, separable form
     Using radial grid of 1263 points,  6 beta functions with: 
                l(1) =   0
                l(2) =   0
                l(3) =   1
                l(4) =   1
                l(5) =   2
                l(6) =   3

     atomic species   valence    mass     pseudopotential
        Cu            17.00    63.54600     Eu( 1.00)
        Au            19.00   196.96600     Tb( 1.00)

     16 Sym. Ops., with inversion, found



   Cartesian axes

     site n.     atom                  positions (alat units)
         1           Cu  tau(   1) = (   0.5662264   0.5662264   0.7379732  )
         2           Au  tau(   2) = (   0.0000000   0.0000000   0.0000000  )

     number of k points=   100  gaussian smearing, width (Ry)=  0.1000

     Number of k-points >= 100: set verbosity='high' to print them.

     Dense  grid:    10289 G-vectors     FFT dimensions: (  25,  25,  36)

     Largest allocated arrays     est. size (Mb)     dimensions
        Kohn-Sham Wavefunctions         0.11 Mb     (    328,   22)
        NL pseudopotentials             0.20 Mb     (    328,   40)
        Each V/rho on FFT grid          0.09 Mb     (   5625)
        Each G-vector array             0.02 Mb     (   2572)
        G-vector shells                 0.00 Mb     (    638)
     Largest temporary arrays     est. size (Mb)     dimensions
        Each subspace H/S matrix        0.01 Mb     (  22,  22)
        Each <psi_i|beta_j> matrix      0.01 Mb     (     40,   22)
        Arrays for rho mixing           0.69 Mb     (   5625,   8)

     Initial potential from superposition of free atoms

     Starting from uniform charge
     Starting wfc are    0 randomized atomic wfcs

     Writing output data file Prototype-La-tP2-AuCu.save

     total cpu time spent up to now is       58.8 secs

     Self-consistent Calculation

     iteration #  1     ecut=    40.00 Ry     beta=0.70
     CG style diagonalization
     c_bands:  1 eigenvalues not converged
     c_bands:  1 eigenvalues not converged
     c_bands:  3 eigenvalues not converged
     c_bands:  1 eigenvalues not converged
     c_bands:  2 eigenvalues not converged
     c_bands:  1 eigenvalues not converged
     c_bands:  5 eigenvalues not converged
     c_bands:  2 eigenvalues not converged
     c_bands:  3 eigenvalues not converged
     c_bands:  1 eigenvalues not converged
     c_bands:  1 eigenvalues not converged
     c_bands:  3 eigenvalues not converged
     c_bands:  5 eigenvalues not converged
     c_bands:  1 eigenvalues not converged
     c_bands:  5 eigenvalues not converged
     c_bands:  1 eigenvalues not converged
     c_bands:  2 eigenvalues not converged
     c_bands:  3 eigenvalues not converged
     c_bands:  4 eigenvalues not converged
     c_bands:  3 eigenvalues not converged
     c_bands:  5 eigenvalues not converged
     c_bands:  4 eigenvalues not converged
     c_bands:  2 eigenvalues not converged
     c_bands:  1 eigenvalues not converged
     c_bands:  2 eigenvalues not converged
     c_bands:  5 eigenvalues not converged
     c_bands:  5 eigenvalues not converged
     c_bands:  3 eigenvalues not converged
     c_bands:  2 eigenvalues not converged
     c_bands:  1 eigenvalues not converged
     c_bands:  1 eigenvalues not converged
     c_bands:  2 eigenvalues not converged
     c_bands:  2 eigenvalues not converged
     c_bands:  1 eigenvalues not converged
     c_bands:  2 eigenvalues not converged
     c_bands:  2 eigenvalues not converged
     c_bands:  1 eigenvalues not converged
     c_bands:  4 eigenvalues not converged
     c_bands:  2 eigenvalues not converged
     c_bands:  1 eigenvalues not converged
     c_bands:  2 eigenvalues not converged
     c_bands:  5 eigenvalues not converged
     c_bands:  5 eigenvalues not converged
     c_bands:  4 eigenvalues not converged
     c_bands:  3 eigenvalues not converged
     c_bands:  5 eigenvalues not converged
     c_bands:  1 eigenvalues not converged
     c_bands:  5 eigenvalues not converged
     c_bands:  4 eigenvalues not converged
     c_bands:  1 eigenvalues not converged
     c_bands:  4 eigenvalues not converged
     c_bands:  1 eigenvalues not converged
     c_bands:  2 eigenvalues not converged
     c_bands:  2 eigenvalues not converged
     c_bands:  3 eigenvalues not converged
     c_bands:  1 eigenvalues not converged
     c_bands:  2 eigenvalues not converged
     c_bands:  2 eigenvalues not converged
     c_bands:  2 eigenvalues not converged
     c_bands:  1 eigenvalues not converged
     c_bands:  1 eigenvalues not converged
     c_bands:  5 eigenvalues not converged
     c_bands:  1 eigenvalues not converged
     c_bands:  1 eigenvalues not converged
     c_bands:  3 eigenvalues not converged
     c_bands:  3 eigenvalues not converged
     c_bands:  4 eigenvalues not converged
     c_bands:  5 eigenvalues not converged
     c_bands:  1 eigenvalues not converged
     c_bands:  2 eigenvalues not converged
     c_bands:  3 eigenvalues not converged
     c_bands:  2 eigenvalues not converged
     c_bands:  1 eigenvalues not converged
     c_bands:  1 eigenvalues not converged
     c_bands:  1 eigenvalues not converged
     c_bands:  1 eigenvalues not converged
     c_bands:  2 eigenvalues not converged
     c_bands:  3 eigenvalues not converged
     c_bands:  2 eigenvalues not converged
     c_bands:  2 eigenvalues not converged
     ethr =  1.00E-06,  avg # of iterations = 47.4

     total cpu time spent up to now is       85.6 secs

     total energy              =    -285.46658501 Ry
     Harris-Foulkes estimate   =    -491.88058958 Ry
     estimated scf accuracy    <     256.42205924 Ry

     iteration #  2     ecut=    40.00 Ry     beta=0.70
     CG style diagonalization
     c_bands:  1 eigenvalues not converged
     c_bands:  1 eigenvalues not converged
     c_bands:  1 eigenvalues not converged
     c_bands:  1 eigenvalues not converged
     c_bands:  1 eigenvalues not converged
     c_bands:  1 eigenvalues not converged
     c_bands:  1 eigenvalues not converged
     c_bands:  2 eigenvalues not converged
     c_bands:  1 eigenvalues not converged
     c_bands:  1 eigenvalues not converged
     c_bands:  1 eigenvalues not converged
     c_bands:  2 eigenvalues not converged
     c_bands:  2 eigenvalues not converged
     c_bands:  3 eigenvalues not converged
     c_bands:  2 eigenvalues not converged
     c_bands:  1 eigenvalues not converged
     c_bands:  1 eigenvalues not converged
     c_bands:  1 eigenvalues not converged
     c_bands:  2 eigenvalues not converged
     c_bands:  1 eigenvalues not converged
     c_bands:  2 eigenvalues not converged
     c_bands:  1 eigenvalues not converged
     c_bands:  1 eigenvalues not converged
     c_bands:  1 eigenvalues not converged
     c_bands:  1 eigenvalues not converged
     c_bands:  1 eigenvalues not converged
     c_bands:  1 eigenvalues not converged
     c_bands:  1 eigenvalues not converged
     c_bands:  2 eigenvalues not converged
     ethr =  1.00E-02,  avg # of iterations = 11.6

     total cpu time spent up to now is       93.2 secs

     total energy              =    -319.89026785 Ry
     Harris-Foulkes estimate   =    -526.85538814 Ry
     estimated scf accuracy    <     435.93062701 Ry

     iteration #  3     ecut=    40.00 Ry     beta=0.70
     CG style diagonalization
     ethr =  1.00E-02,  avg # of iterations = 10.2

     total cpu time spent up to now is      100.0 secs

     total energy              =    -400.64563282 Ry
     Harris-Foulkes estimate   =    -410.87948431 Ry
     estimated scf accuracy    <      17.06894365 Ry

     iteration #  4     ecut=    40.00 Ry     beta=0.70
     CG style diagonalization
     ethr =  1.00E-02,  avg # of iterations =  5.3

     total cpu time spent up to now is      103.1 secs

     total energy              =    -404.22291842 Ry
     Harris-Foulkes estimate   =    -405.19645818 Ry
     estimated scf accuracy    <       2.70967759 Ry

     iteration #  5     ecut=    40.00 Ry     beta=0.70
     CG style diagonalization
     ethr =  7.53E-03,  avg # of iterations =  3.1

     total cpu time spent up to now is      105.0 secs

     total energy              =    -404.54611826 Ry
     Harris-Foulkes estimate   =    -404.61825002 Ry
     estimated scf accuracy    <       0.12811559 Ry

     iteration #  6     ecut=    40.00 Ry     beta=0.70
     CG style diagonalization
     ethr =  3.56E-04,  avg # of iterations =  4.6

     total cpu time spent up to now is      107.8 secs

     total energy              =    -404.54064814 Ry
     Harris-Foulkes estimate   =    -404.67880833 Ry
     estimated scf accuracy    <       0.31928937 Ry

     iteration #  7     ecut=    40.00 Ry     beta=0.70
     CG style diagonalization
     ethr =  3.56E-04,  avg # of iterations =  3.6

     total cpu time spent up to now is      110.2 secs

     total energy              =    -404.60070927 Ry
     Harris-Foulkes estimate   =    -404.60154552 Ry
     estimated scf accuracy    <       0.00447347 Ry

     iteration #  8     ecut=    40.00 Ry     beta=0.70
     CG style diagonalization
     c_bands:  1 eigenvalues not converged
     c_bands:  1 eigenvalues not converged
     c_bands:  1 eigenvalues not converged
     c_bands:  1 eigenvalues not converged
     c_bands:  1 eigenvalues not converged
     ethr =  1.24E-05,  avg # of iterations =  3.7

     total cpu time spent up to now is      112.4 secs

     total energy              =    -404.59994288 Ry
     Harris-Foulkes estimate   =    -404.60139376 Ry
     estimated scf accuracy    <       0.00406314 Ry

     iteration #  9     ecut=    40.00 Ry     beta=0.70
     CG style diagonalization
     ethr =  1.13E-05,  avg # of iterations =  3.0

     total cpu time spent up to now is      114.7 secs

     total energy              =    -404.60038200 Ry
     Harris-Foulkes estimate   =    -404.60044473 Ry
     estimated scf accuracy    <       0.00012816 Ry

     iteration # 10     ecut=    40.00 Ry     beta=0.70
     CG style diagonalization
     c_bands:  1 eigenvalues not converged
     c_bands:  1 eigenvalues not converged
     ethr =  3.56E-07,  avg # of iterations =  4.3

     total cpu time spent up to now is      117.2 secs

     End of self-consistent calculation

     Number of k-points >= 100: set verbosity='high' to print the bands.

     the Fermi energy is    20.3237 ev

!    total energy              =    -404.60040882 Ry
     Harris-Foulkes estimate   =    -404.60046137 Ry
     estimated scf accuracy    <       0.00005588 Ry

     The total energy is the sum of the following terms:

     one-electron contribution =     -70.06225596 Ry
     hartree contribution      =      58.25472446 Ry
     xc contribution           =     -39.92371517 Ry
     ewald contribution        =    -352.74671472 Ry
     smearing contrib. (-TS)   =      -0.12244743 Ry

     convergence has been achieved in  10 iterations

     Forces acting on atoms (Ry/au):

     atom    1 type  1   force =     0.00000000    0.00000000    0.00000000
     atom    2 type  2   force =     0.00000000    0.00000000    0.00000000

     Total force =     0.000000     Total SCF correction =     0.000000


     entering subroutine stress ...

          total   stress  (Ry/bohr**3)                   (kbar)     P= -491.93
  -0.00343272   0.00000000   0.00000000       -504.97      0.00      0.00
   0.00000000  -0.00343272   0.00000000          0.00   -504.97      0.00
   0.00000000   0.00000000  -0.00316678          0.00      0.00   -465.85


     Writing output data file Prototype-La-tP2-AuCu.save
 
     init_run     :      1.22s CPU      1.39s WALL (       2 calls)
     electrons    :    103.22s CPU    111.99s WALL (       5 calls)
     update_pot   :      0.48s CPU      0.49s WALL (       3 calls)
     forces       :      0.56s CPU      0.57s WALL (       5 calls)
     stress       :      1.33s CPU      1.34s WALL (       5 calls)

     Called by init_run:
     wfcinit      :      0.98s CPU      1.14s WALL (       2 calls)
     potinit      :      0.09s CPU      0.09s WALL (       2 calls)

     Called by electrons:
     c_bands      :     98.34s CPU    104.07s WALL (      35 calls)
     sum_band     :      4.79s CPU      5.02s WALL (      35 calls)
     v_of_rho     :      0.01s CPU      0.02s WALL (      40 calls)
     mix_rho      :      0.01s CPU      0.02s WALL (      35 calls)

     Called by c_bands:
     init_us_2    :      0.78s CPU      0.78s WALL (    8200 calls)
     ccgdiagg     :     85.46s CPU     89.67s WALL (    3754 calls)
     wfcrot       :     13.11s CPU     14.36s WALL (    3854 calls)

     Called by *cgdiagg:
     h_psi        :     68.75s CPU     74.21s WALL (  405328 calls)
     cdiaghg      :      0.56s CPU      0.75s WALL (    3854 calls)

     Called by h_psi:
     add_vuspsi   :      3.24s CPU      4.08s WALL (  405328 calls)

     General routines
     calbec       :     13.65s CPU     14.51s WALL (  807802 calls)
     fft          :      0.05s CPU      0.05s WALL (     183 calls)
     fftw         :     56.70s CPU     58.97s WALL ( 1049524 calls)
     davcio       :      0.43s CPU      0.82s WALL (   11700 calls)
 
     Parallel routines
     fft_scatter  :     21.35s CPU     23.01s WALL ( 1049707 calls)
 
     PWSCF        :  1m47.70s CPU     1m57.92s WALL

 
   This run was terminated on:  21:17:16  22Mar2018            

=------------------------------------------------------------------------------=
   JOB DONE.
=------------------------------------------------------------------------------=
