
     Program PWSCF v.5.0.2 starts on 22Mar2018 at 21:15:18 

     This program is part of the open-source Quantum ESPRESSO suite
     for quantum simulation of materials; please cite
         "P. Giannozzi et al., J. Phys.:Condens. Matter 21 395502 (2009);
          URL http://www.quantum-espresso.org", 
     in publications or presentations arising from this work. More details at
     http://www.quantum-espresso.org/quote.php

     Parallel version (MPI), running on     4 processors
     R & G space division:  proc/nbgrp/npool/nimage =       4

     Current dimensions of program PWSCF are:
     Max number of different atomic species (ntypx) = 10
     Max number of k-points (npk) =  40000
     Max angular momentum in pseudopotentials (lmaxx) =  3
     Waiting for input...
     Reading input from standard input

     Subspace diagonalization in iterative solution of the eigenvalue problem:
     a serial algorithm will be used

 
     Parallelization info
     --------------------
     sticks:   dense  smooth     PW     G-vecs:    dense   smooth      PW
     Min         396     396    112                10116    10116    1566
     Max         397     397    113                10119    10119    1567
     Sum        1585    1585    451                40467    40467    6267
 


     bravais-lattice index     =            0
     lattice parameter (alat)  =      12.0168  a.u.
     unit-cell volume          =    1187.3413 (a.u.)^3
     number of atoms/cell      =            8
     number of atomic types    =            2
     number of electrons       =       140.00
     number of Kohn-Sham states=           84
     kinetic-energy cutoff     =      40.0000  Ry
     charge density cutoff     =     160.0000  Ry
     convergence threshold     =      1.0E-04
     mixing beta               =       0.7000
     number of iterations used =            8  plain     mixing
     Exchange-correlation      = SLA-PZ-NOGX-NOGC ( 1 1 0 0 0)
     EXX-fraction              =        0.00
     nstep                     =           50


     celldm(1)=  12.016801  celldm(2)=   0.000000  celldm(3)=   0.000000
     celldm(4)=   0.000000  celldm(5)=   0.000000  celldm(6)=   0.000000

     crystal axes: (cart. coord. in units of alat)
               a(1) = (   1.000000   0.000000   0.000000 )  
               a(2) = (  -0.500000   0.866025   0.000000 )  
               a(3) = (   0.000000   0.000000   0.790093 )  

     reciprocal axes: (cart. coord. in units 2 pi/alat)
               b(1) = (  1.000000  0.577350  0.000000 )  
               b(2) = (  0.000000  1.154701  0.000000 )  
               b(3) = (  0.000000  0.000000  1.265674 )  


     PseudoPot. # 1 for Eu read from file:
     /home/cwx6513/pp.La/Eu.UPF
     MD5 check sum: 5efdbbfc50c6a10138933a6429836ad2
     Pseudo is Norm-conserving, Zval = 17.0
     Generated in analytical, separable form
     Using radial grid of 1261 points,  6 beta functions with: 
                l(1) =   0
                l(2) =   0
                l(3) =   1
                l(4) =   1
                l(5) =   2
                l(6) =   3

     PseudoPot. # 2 for Tb read from file:
     /home/cwx6513/pp.La/Tb.UPF
     MD5 check sum: 3d6088a3f0cf7fd2e110c43f7f8e95c2
     Pseudo is Norm-conserving, Zval = 19.0
     Generated in analytical, separable form
     Using radial grid of 1263 points,  6 beta functions with: 
                l(1) =   0
                l(2) =   0
                l(3) =   1
                l(4) =   1
                l(5) =   2
                l(6) =   3

     atomic species   valence    mass     pseudopotential
        Mg            17.00    24.30500     Eu( 1.00)
        Cd            19.00   112.41100     Tb( 1.00)

     24 Sym. Ops., with inversion, found (12 have fractional translation)



   Cartesian axes

     site n.     atom                  positions (alat units)
         1           Mg  tau(   1) = (   0.2478935   0.7204716   0.1975233  )
         2           Mg  tau(   2) = (   0.7478935   0.1455538   0.5925699  )
         3           Mg  tau(   3) = (   0.2521065   0.1455538   0.5925699  )
         4           Mg  tau(   4) = (  -0.2478935   0.7204716   0.1975233  )
         5           Mg  tau(   5) = (   0.0000000   0.2911075   0.1975233  )
         6           Mg  tau(   6) = (   0.5000000   0.5749179   0.5925699  )
         7           Cd  tau(   7) = (   0.5000005   0.2886748   0.1975233  )
         8           Cd  tau(   8) = (  -0.0000005   0.5773506   0.5925699  )

     number of k points=    64  gaussian smearing, width (Ry)=  0.1000
                       cart. coord. in units 2pi/alat
        k(    1) = (   0.0000000   0.0000000   0.0000000), wk =   0.0095238
        k(    2) = (   0.0000000   0.0000000   0.1808105), wk =   0.0190476
        k(    3) = (   0.0000000   0.0000000   0.3616210), wk =   0.0190476
        k(    4) = (   0.0000000   0.0000000   0.5424315), wk =   0.0190476
        k(    5) = (   0.0000000   0.1924501   0.0000000), wk =   0.0190476
        k(    6) = (   0.0000000   0.1924501   0.1808105), wk =   0.0380952
        k(    7) = (   0.0000000   0.1924501   0.3616210), wk =   0.0380952
        k(    8) = (   0.0000000   0.1924501   0.5424315), wk =   0.0380952
        k(    9) = (   0.0000000   0.3849002   0.0000000), wk =   0.0190476
        k(   10) = (   0.0000000   0.3849002   0.1808105), wk =   0.0380952
        k(   11) = (   0.0000000   0.3849002   0.3616210), wk =   0.0380952
        k(   12) = (   0.0000000   0.3849002   0.5424315), wk =   0.0380952
        k(   13) = (   0.0000000  -0.5773503   0.0000000), wk =   0.0095238
        k(   14) = (   0.0000000  -0.5773503   0.1808105), wk =   0.0190476
        k(   15) = (   0.0000000  -0.5773503   0.3616210), wk =   0.0190476
        k(   16) = (   0.0000000  -0.5773503   0.5424315), wk =   0.0190476
        k(   17) = (   0.2000000   0.1154701   0.0000000), wk =   0.0190476
        k(   18) = (   0.2000000   0.1154701   0.1808105), wk =   0.0380952
        k(   19) = (   0.2000000   0.1154701   0.3616210), wk =   0.0380952
        k(   20) = (   0.2000000   0.1154701   0.5424315), wk =   0.0380952
        k(   21) = (   0.2000000   0.3079201   0.0000000), wk =   0.0190476
        k(   22) = (   0.2000000   0.3079201   0.1808105), wk =   0.0380952
        k(   23) = (   0.2000000   0.3079201   0.3616210), wk =   0.0380952
        k(   24) = (   0.2000000   0.3079201   0.5424315), wk =   0.0380952
        k(   25) = (   0.2000000   0.5003702   0.0000000), wk =   0.0190476
        k(   26) = (   0.2000000   0.5003702   0.1808105), wk =   0.0380952
        k(   27) = (   0.2000000   0.5003702   0.3616210), wk =   0.0380952
        k(   28) = (   0.2000000   0.5003702   0.5424315), wk =   0.0380952
        k(   29) = (   0.2000000  -0.4618802   0.0000000), wk =   0.0190476
        k(   30) = (   0.2000000  -0.4618802   0.1808105), wk =   0.0380952
        k(   31) = (   0.2000000  -0.4618802   0.3616210), wk =   0.0380952
        k(   32) = (   0.2000000  -0.4618802   0.5424315), wk =   0.0380952
        k(   33) = (   0.2000000  -0.2694301   0.0000000), wk =   0.0190476
        k(   34) = (   0.2000000  -0.2694301   0.1808105), wk =   0.0380952
        k(   35) = (   0.2000000  -0.2694301   0.3616210), wk =   0.0380952
        k(   36) = (   0.2000000  -0.2694301   0.5424315), wk =   0.0380952
        k(   37) = (   0.2000000  -0.0769800   0.0000000), wk =   0.0190476
        k(   38) = (   0.2000000  -0.0769800   0.1808105), wk =   0.0380952
        k(   39) = (   0.2000000  -0.0769800   0.3616210), wk =   0.0380952
        k(   40) = (   0.2000000  -0.0769800   0.5424315), wk =   0.0380952
        k(   41) = (   0.4000000   0.2309401   0.0000000), wk =   0.0190476
        k(   42) = (   0.4000000   0.2309401   0.1808105), wk =   0.0380952
        k(   43) = (   0.4000000   0.2309401   0.3616210), wk =   0.0380952
        k(   44) = (   0.4000000   0.2309401   0.5424315), wk =   0.0380952
        k(   45) = (   0.4000000   0.4233902   0.0000000), wk =   0.0190476
        k(   46) = (   0.4000000   0.4233902   0.1808105), wk =   0.0380952
        k(   47) = (   0.4000000   0.4233902   0.3616210), wk =   0.0380952
        k(   48) = (   0.4000000   0.4233902   0.5424315), wk =   0.0380952
        k(   49) = (   0.4000000   0.6158403   0.0000000), wk =   0.0190476
        k(   50) = (   0.4000000   0.6158403   0.1808105), wk =   0.0380952
        k(   51) = (   0.4000000   0.6158403   0.3616210), wk =   0.0380952
        k(   52) = (   0.4000000   0.6158403   0.5424315), wk =   0.0380952
        k(   53) = (   0.4000000  -0.3464102   0.0000000), wk =   0.0190476
        k(   54) = (   0.4000000  -0.3464102   0.1808105), wk =   0.0380952
        k(   55) = (   0.4000000  -0.3464102   0.3616210), wk =   0.0380952
        k(   56) = (   0.4000000  -0.3464102   0.5424315), wk =   0.0380952
        k(   57) = (   0.4000000  -0.1539601   0.0000000), wk =   0.0190476
        k(   58) = (   0.4000000  -0.1539601   0.1808105), wk =   0.0380952
        k(   59) = (   0.4000000  -0.1539601   0.3616210), wk =   0.0380952
        k(   60) = (   0.4000000  -0.1539601   0.5424315), wk =   0.0380952
        k(   61) = (   0.4000000   0.0384900   0.0000000), wk =   0.0190476
        k(   62) = (   0.4000000   0.0384900   0.1808105), wk =   0.0380952
        k(   63) = (   0.4000000   0.0384900   0.3616210), wk =   0.0380952
        k(   64) = (   0.4000000   0.0384900   0.5424315), wk =   0.0380952

     Dense  grid:    40467 G-vectors     FFT dimensions: (  50,  50,  40)

     Largest allocated arrays     est. size (Mb)     dimensions
        Kohn-Sham Wavefunctions         1.66 Mb     (   1298,   84)
        NL pseudopotentials             3.17 Mb     (   1298,  160)
        Each V/rho on FFT grid          0.38 Mb     (  25000)
        Each G-vector array             0.08 Mb     (  10119)
        G-vector shells                 0.08 Mb     (  10119)
     Largest temporary arrays     est. size (Mb)     dimensions
        Each subspace H/S matrix        0.11 Mb     (  84,  84)
        Each <psi_i|beta_j> matrix      0.21 Mb     (    160,   84)
        Arrays for rho mixing           3.05 Mb     (  25000,   8)

     Initial potential from superposition of free atoms

     Starting from uniform charge
     Starting wfc are    0 randomized atomic wfcs

     total cpu time spent up to now is        7.8 secs

     Self-consistent Calculation

     iteration #  1     ecut=    40.00 Ry     beta=0.70
     CG style diagonalization
     c_bands:  4 eigenvalues not converged
     c_bands:  3 eigenvalues not converged
     c_bands:  3 eigenvalues not converged
     c_bands:  3 eigenvalues not converged
     c_bands:  4 eigenvalues not converged
     c_bands:  4 eigenvalues not converged
     c_bands:  1 eigenvalues not converged
     c_bands:  4 eigenvalues not converged
     c_bands:  4 eigenvalues not converged
     c_bands:  3 eigenvalues not converged
     c_bands:  2 eigenvalues not converged
     c_bands:  4 eigenvalues not converged
     c_bands:  3 eigenvalues not converged
     c_bands:  2 eigenvalues not converged
     c_bands:  1 eigenvalues not converged
     c_bands:  1 eigenvalues not converged
     c_bands:  3 eigenvalues not converged
     c_bands:  4 eigenvalues not converged
     c_bands:  2 eigenvalues not converged
     c_bands:  1 eigenvalues not converged
     c_bands:  1 eigenvalues not converged
     c_bands:  1 eigenvalues not converged
     c_bands:  2 eigenvalues not converged
     c_bands:  3 eigenvalues not converged
     c_bands:  2 eigenvalues not converged
     c_bands:  1 eigenvalues not converged
     c_bands:  3 eigenvalues not converged
     c_bands:  4 eigenvalues not converged
     c_bands:  5 eigenvalues not converged
     c_bands:  1 eigenvalues not converged
     c_bands:  2 eigenvalues not converged
     c_bands:  4 eigenvalues not converged
     c_bands:  5 eigenvalues not converged
     c_bands:  4 eigenvalues not converged
     c_bands:  5 eigenvalues not converged
     c_bands:  5 eigenvalues not converged
     c_bands:  2 eigenvalues not converged
     c_bands:  2 eigenvalues not converged
     c_bands:  5 eigenvalues not converged
     c_bands:  5 eigenvalues not converged
     c_bands:  5 eigenvalues not converged
     c_bands:  2 eigenvalues not converged
     c_bands:  4 eigenvalues not converged
     c_bands:  4 eigenvalues not converged
     c_bands:  5 eigenvalues not converged
     c_bands:  4 eigenvalues not converged
     c_bands:  4 eigenvalues not converged
     c_bands:  5 eigenvalues not converged
     c_bands:  5 eigenvalues not converged
     c_bands:  2 eigenvalues not converged
     ethr =  1.00E-02,  avg # of iterations = 12.6

     total cpu time spent up to now is      125.5 secs

     total energy              =   -1247.68174960 Ry
     Harris-Foulkes estimate   =   -1816.71923028 Ry
     estimated scf accuracy    <     721.63261285 Ry

     iteration #  2     ecut=    40.00 Ry     beta=0.70
     CG style diagonalization
     c_bands:  1 eigenvalues not converged
     c_bands:  1 eigenvalues not converged
     c_bands:  1 eigenvalues not converged
     c_bands:  1 eigenvalues not converged
     c_bands:  2 eigenvalues not converged
     c_bands:  1 eigenvalues not converged
     c_bands:  1 eigenvalues not converged
     c_bands:  1 eigenvalues not converged
     c_bands:  1 eigenvalues not converged
     c_bands:  1 eigenvalues not converged
     c_bands:  1 eigenvalues not converged
     c_bands:  1 eigenvalues not converged
     c_bands:  1 eigenvalues not converged
     c_bands:  1 eigenvalues not converged
     ethr =  1.00E-02,  avg # of iterations = 10.0

     total cpu time spent up to now is      218.0 secs

     total energy              =   -1335.39357218 Ry
     Harris-Foulkes estimate   =   -1704.37182650 Ry
     estimated scf accuracy    <     649.12522264 Ry

     iteration #  3     ecut=    40.00 Ry     beta=0.70
     CG style diagonalization
     c_bands:  1 eigenvalues not converged
     c_bands:  1 eigenvalues not converged
     c_bands:  1 eigenvalues not converged
     ethr =  1.00E-02,  avg # of iterations = 10.8

     total cpu time spent up to now is      315.2 secs

     total energy              =   -1477.40788086 Ry
     Harris-Foulkes estimate   =   -1551.00244524 Ry
     estimated scf accuracy    <     161.46846111 Ry

     iteration #  4     ecut=    40.00 Ry     beta=0.70
     CG style diagonalization
     ethr =  1.00E-02,  avg # of iterations =  6.2

     total cpu time spent up to now is      372.2 secs

     total energy              =   -1508.35566566 Ry
     Harris-Foulkes estimate   =   -1511.40219051 Ry
     estimated scf accuracy    <       6.44216733 Ry

     iteration #  5     ecut=    40.00 Ry     beta=0.70
     CG style diagonalization
     ethr =  4.60E-03,  avg # of iterations =  3.6

     total cpu time spent up to now is      403.5 secs

     total energy              =   -1509.57270014 Ry
     Harris-Foulkes estimate   =   -1509.96063595 Ry
     estimated scf accuracy    <       0.60994163 Ry

     iteration #  6     ecut=    40.00 Ry     beta=0.70
     CG style diagonalization
     ethr =  4.36E-04,  avg # of iterations =  4.4

     total cpu time spent up to now is      443.0 secs

     total energy              =   -1509.56204042 Ry
     Harris-Foulkes estimate   =   -1510.14691319 Ry
     estimated scf accuracy    <       1.02214427 Ry

     iteration #  7     ecut=    40.00 Ry     beta=0.70
     CG style diagonalization
     ethr =  4.36E-04,  avg # of iterations =  3.7

     total cpu time spent up to now is      476.4 secs

     total energy              =   -1509.82410484 Ry
     Harris-Foulkes estimate   =   -1509.86506793 Ry
     estimated scf accuracy    <       0.08947920 Ry

     iteration #  8     ecut=    40.00 Ry     beta=0.70
     CG style diagonalization
     c_bands:  1 eigenvalues not converged
     c_bands:  1 eigenvalues not converged
     c_bands:  1 eigenvalues not converged
     c_bands:  1 eigenvalues not converged
     c_bands:  1 eigenvalues not converged
     ethr =  6.39E-05,  avg # of iterations =  3.6

     total cpu time spent up to now is      508.3 secs

     total energy              =   -1509.83648253 Ry
     Harris-Foulkes estimate   =   -1509.83886589 Ry
     estimated scf accuracy    <       0.00345161 Ry

     iteration #  9     ecut=    40.00 Ry     beta=0.70
     CG style diagonalization
     c_bands:  1 eigenvalues not converged
     c_bands:  1 eigenvalues not converged
     c_bands:  1 eigenvalues not converged
     c_bands:  1 eigenvalues not converged
     c_bands:  1 eigenvalues not converged
     c_bands:  1 eigenvalues not converged
     c_bands:  1 eigenvalues not converged
     c_bands:  1 eigenvalues not converged
     c_bands:  2 eigenvalues not converged
     c_bands:  1 eigenvalues not converged
     ethr =  2.47E-06,  avg # of iterations =  4.7

     total cpu time spent up to now is      550.2 secs

     total energy              =   -1509.83755582 Ry
     Harris-Foulkes estimate   =   -1509.84050993 Ry
     estimated scf accuracy    <       0.00613019 Ry

     iteration # 10     ecut=    40.00 Ry     beta=0.70
     CG style diagonalization
     c_bands:  1 eigenvalues not converged
     ethr =  2.47E-06,  avg # of iterations =  3.6

     total cpu time spent up to now is      581.8 secs

     End of self-consistent calculation

          k = 0.0000 0.0000 0.0000 (  5047 PWs)   bands (ev):

   -53.8745 -53.8730 -42.0337 -41.9749 -41.9749 -41.9652 -41.9414 -41.9413
   -22.2041 -22.1938 -22.1563 -22.1563 -22.1505 -22.1505 -14.9968 -14.9878
   -14.8693 -14.7907 -14.7906 -14.7656 -14.7656 -14.7469 -14.7468 -14.6110
   -14.5080 -14.5079 -14.4235 -14.4234 -14.4014 -14.3947 -14.3947 -14.3816
    13.6522  14.2227  14.2227  14.2927  14.3283  14.5675  14.5676  14.7694
    14.7695  15.1457  15.5030  15.6250  15.6250  16.7658  16.9724  16.9724
    17.1856  17.2824  17.3495  17.3495  17.8306  17.8306  17.8827  17.8828
    18.0182  18.4193  18.4585  18.4585  18.6077  18.6077  20.1149  20.1149
    20.3633  20.3633  20.4133  20.4133  20.5846  20.5846  21.0565  21.4402
    21.4811  21.4924  22.6763  23.2309  23.2309  24.0167  24.6775  24.6776
    26.8548  27.7526  27.7526  27.8383

          k = 0.0000 0.0000 0.1808 (  5065 PWs)   bands (ev):

   -53.8772 -53.8751 -42.0315 -41.9748 -41.9747 -41.9688 -41.9427 -41.9426
   -22.1994 -22.1972 -22.1659 -22.1659 -22.1561 -22.1561 -15.0098 -14.9838
   -14.8552 -14.8552 -14.8472 -14.7709 -14.7709 -14.6917 -14.6917 -14.5937
   -14.5003 -14.5002 -14.4375 -14.4267 -14.4267 -14.3968 -14.3968 -14.3966
    13.8261  14.2840  14.2840  14.2970  14.2971  14.3317  14.4168  14.7931
    15.0616  15.0616  15.5745  15.5745  16.0340  16.4349  17.0171  17.0171
    17.1681  17.2348  17.2348  17.3824  17.3824  17.3917  17.4252  17.8966
    17.8966  18.5465  18.5466  19.3579  19.4105  19.4105  20.1011  20.1012
    20.2025  20.2025  20.3700  20.3701  20.5870  20.5870  20.7352  20.9427
    21.2906  21.4262  22.4766  22.9481  22.9481  23.9188  24.5228  24.5229
    27.2573  27.6746  27.6747  27.9952

          k = 0.0000 0.0000 0.3616 (  5047 PWs)   bands (ev):

   -53.8759 -53.8723 -42.0235 -41.9755 -41.9697 -41.9697 -41.9470 -41.9469
   -22.1885 -22.1780 -22.1635 -22.1635 -22.1593 -22.1593 -15.0028 -14.9749
   -14.8906 -14.8906 -14.8247 -14.8247 -14.7781 -14.5947 -14.5947 -14.5673
   -14.5173 -14.4878 -14.4878 -14.4284 -14.4169 -14.4169 -14.4031 -14.4030
    14.1308  14.1308  14.2603  14.3875  14.4211  14.4212  14.6586  14.7005
    15.2434  15.2434  15.3104  15.3105  15.6789  16.2373  17.0175  17.0176
    17.0608  17.0608  17.0827  17.2548  17.2548  17.6258  17.8428  18.0541
    18.0541  18.9103  18.9104  19.3193  19.8178  19.8178  20.0279  20.0279
    20.2172  20.2172  20.2335  20.2336  20.2514  20.2581  21.0030  21.0030
    21.2257  21.3884  22.0655  22.1927  22.1927  23.6142  24.0307  24.0307
    27.1082  27.2094  27.5355  27.5352

          k = 0.0000 0.0000 0.5424 (  5041 PWs)   bands (ev):

   -53.8752 -53.8718 -42.0075 -41.9913 -41.9617 -41.9616 -41.9549 -41.9548
   -22.1912 -22.1799 -22.1598 -22.1598 -22.1557 -22.1557 -14.9830 -14.9798
   -14.8976 -14.8976 -14.8710 -14.8710 -14.6941 -14.5969 -14.5295 -14.5294
   -14.5241 -14.4924 -14.4924 -14.4720 -14.4205 -14.4205 -14.4079 -14.4079
    14.1980  14.1980  14.4116  14.4116  14.5253  14.6080  14.7358  14.9613
    15.1037  15.1037  15.2012  15.2012  15.3145  15.8585  16.9825  16.9825
    16.9979  16.9980  17.1381  17.5094  17.5094  17.8088  17.9569  17.9569
    18.5038  18.9072  19.3483  19.6233  19.6233  19.6725  19.6725  19.8395
    19.8396  19.9510  20.2112  20.2112  20.3873  20.3874  20.9945  20.9945
    21.2711  21.3320  22.2096  22.2096  22.3627  23.0783  23.2150  23.2150
    26.8698  26.8811  27.5037  27.5036

          k = 0.0000 0.1925 0.0000 (  5083 PWs)   bands (ev):

   -53.8795 -53.8766 -42.0320 -41.9804 -41.9765 -41.9645 -41.9423 -41.9421
   -22.2094 -22.2011 -22.1684 -22.1641 -22.1606 -22.1594 -14.9800 -14.9786
   -14.8506 -14.7967 -14.7963 -14.7768 -14.7716 -14.7391 -14.7215 -14.6213
   -14.5211 -14.5113 -14.4602 -14.4433 -14.4279 -14.4056 -14.4051 -14.3971
    13.8465  14.3165  14.3765  14.4188  14.4543  14.5946  14.6518  14.8281
    14.8969  15.2350  15.3756  15.6217  15.8698  16.6307  17.0014  17.0672
    17.2017  17.2565  17.3133  17.4489  17.6510  17.7585  17.8410  17.9426
    18.0438  18.1620  18.2543  18.3021  18.3847  18.4446  19.5464  19.9572
    20.0559  20.2023  20.2576  20.3774  20.5351  20.5873  20.9444  21.1362
    21.4150  21.5905  22.3685  22.5689  23.0427  24.9851  25.2695  26.1808
    26.7911  27.1595  27.7960  27.8361

          k = 0.0000 0.1925 0.1808 (  5077 PWs)   bands (ev):

   -53.8795 -53.8756 -42.0292 -41.9777 -41.9748 -41.9674 -41.9441 -41.9440
   -22.2050 -22.1974 -22.1673 -22.1652 -22.1612 -22.1587 -14.9777 -14.9716
   -14.8557 -14.8489 -14.8338 -14.7735 -14.7540 -14.6990 -14.6911 -14.6027
   -14.5146 -14.5018 -14.4635 -14.4405 -14.4372 -14.4171 -14.4066 -14.4007
    14.0146  14.3559  14.3732  14.4129  14.4438  14.4511  14.5345  14.8924
    15.1313  15.1479  15.5376  15.5524  16.1666  16.4567  16.8901  17.0151
    17.0947  17.2349  17.2418  17.3239  17.4091  17.4152  17.4828  17.8548
    17.8664  18.4529  18.5488  18.9489  18.9797  19.1412  19.3594  19.9573
    20.0068  20.0962  20.1163  20.4025  20.4472  20.5370  20.9458  21.0659
    21.2149  21.4431  21.9176  22.2810  22.9430  24.8446  25.0546  25.5718
    26.9291  27.1318  27.6303  28.1557

          k = 0.0000 0.1925 0.3616 (  5061 PWs)   bands (ev):

   -53.8780 -53.8734 -42.0202 -41.9764 -41.9715 -41.9698 -41.9493 -41.9476
   -22.1940 -22.1819 -22.1699 -22.1671 -22.1608 -22.1564 -14.9721 -14.9629
   -14.8920 -14.8808 -14.8223 -14.8067 -14.7733 -14.6270 -14.6031 -14.5513
   -14.5303 -14.5025 -14.4828 -14.4603 -14.4391 -14.4247 -14.4185 -14.3985
    14.2282  14.2298  14.4195  14.4629  14.5604  14.5776  14.7836  14.8259
    15.2892  15.3006  15.3307  15.3392  15.7631  16.3753  16.7630  16.9886
    17.0272  17.0387  17.1050  17.1960  17.3651  17.6494  17.6799  18.0582
    18.0755  18.6777  18.8800  18.8891  19.4420  19.5478  19.6832  19.6929
    19.9943  20.0772  20.1199  20.2242  20.2890  20.4636  20.6507  20.9752
    21.0146  21.1693  21.3344  22.1834  22.6944  24.1739  24.3162  24.4042
    26.8540  27.2703  27.4653  28.2563

          k = 0.0000 0.1925 0.5424 (  5050 PWs)   bands (ev):

   -53.8761 -53.8731 -42.0051 -41.9890 -41.9647 -41.9628 -41.9569 -41.9550
   -22.1879 -22.1774 -22.1658 -22.1658 -22.1641 -22.1553 -14.9678 -14.9610
   -14.8987 -14.8877 -14.8712 -14.8594 -14.6881 -14.5976 -14.5740 -14.5346
   -14.5276 -14.4998 -14.4931 -14.4567 -14.4458 -14.4253 -14.4228 -14.4093
    14.2972  14.3018  14.4894  14.5339  14.6300  14.7608  14.9057  15.0219
    15.1494  15.1521  15.2362  15.2937  15.4971  15.9897  16.7666  16.8135
    17.0756  17.1167  17.1276  17.3618  17.5408  17.7000  17.9419  17.9569
    18.3166  18.8000  19.1173  19.1418  19.3066  19.4617  19.4684  19.8278
    19.9110  19.9789  19.9883  20.0845  20.2995  20.3540  20.6149  20.6193
    20.9747  21.2033  21.5961  22.6099  22.8074  22.8473  23.4632  23.5636
    27.0505  27.4571  27.6608  28.0906

          k = 0.0000 0.3849 0.0000 (  5079 PWs)   bands (ev):

   -53.8804 -53.8757 -42.0245 -41.9901 -41.9768 -41.9620 -41.9424 -41.9423
   -22.2011 -22.1922 -22.1733 -22.1729 -22.1591 -22.1555 -14.9624 -14.9131
   -14.8238 -14.8014 -14.7908 -14.7658 -14.7516 -14.6928 -14.6695 -14.6370
   -14.5517 -14.5260 -14.5071 -14.5050 -14.4886 -14.4377 -14.3977 -14.3973
    14.3271  14.5258  14.6538  14.6664  14.7710  14.8327  14.8594  14.9136
    15.1962  15.3202  15.5123  15.6095  16.2772  16.2796  16.9221  17.0935
    17.0992  17.2198  17.3070  17.3405  17.4478  17.4837  17.5080  17.6431
    17.9849  18.0309  18.0322  18.1538  18.2904  18.4319  18.7940  19.5211
    19.5222  19.7963  19.9825  20.0957  20.2774  20.4207  20.4297  20.5708
    21.0507  21.2684  22.0660  22.9925  24.1955  25.8206  26.1926  26.5316
    26.9506  27.4915  27.7411  28.0351

          k = 0.0000 0.3849 0.1808 (  5090 PWs)   bands (ev):

   -53.8810 -53.8773 -42.0213 -41.9883 -41.9757 -41.9647 -41.9460 -41.9440
   -22.2040 -22.1959 -22.1741 -22.1715 -22.1627 -22.1618 -14.9506 -14.9174
   -14.8542 -14.8279 -14.8098 -14.7425 -14.7236 -14.6936 -14.6864 -14.6087
   -14.5571 -14.5435 -14.5190 -14.4804 -14.4777 -14.4310 -14.4177 -14.4028
    14.4351  14.5525  14.5593  14.6561  14.7207  14.8344  14.9039  15.0163
    15.3336  15.4097  15.4898  15.5001  16.3179  16.5042  16.6243  16.9107
    17.0696  17.0764  17.1259  17.2795  17.3286  17.5094  17.5829  17.7304
    17.8556  18.2472  18.3243  18.4276  18.5568  18.6592  18.6906  19.4607
    19.5139  19.6336  19.9715  20.1008  20.1707  20.2569  20.3899  20.4892
    20.9433  21.1995  22.1531  23.0776  23.2846  25.4103  25.9012  26.0229
    26.9192  27.6024  27.6605  28.2637

          k = 0.0000 0.3849 0.3616 (  5078 PWs)   bands (ev):

   -53.8797 -53.8757 -42.0120 -41.9836 -41.9703 -41.9702 -41.9534 -41.9484
   -22.2029 -22.1883 -22.1685 -22.1683 -22.1629 -22.1616 -14.9356 -14.9272
   -14.8701 -14.8588 -14.8197 -14.7617 -14.7384 -14.6698 -14.6315 -14.5632
   -14.5549 -14.5422 -14.5231 -14.4696 -14.4582 -14.4540 -14.4255 -14.4073
    14.4744  14.4759  14.6356  14.7033  14.8993  14.9619  15.0459  15.1511
    15.2072  15.3338  15.5644  15.5825  16.0188  16.3667  16.5866  16.8356
    16.9295  17.0226  17.0236  17.3293  17.4672  17.5291  17.6799  17.7211
    18.1163  18.2611  18.4036  18.5122  18.7547  18.8027  19.3061  19.3212
    19.4057  19.6504  19.7510  19.8768  20.0519  20.2421  20.2742  20.4016
    20.5153  21.3991  21.9518  22.4264  23.2202  23.7001  25.1481  25.1993
    26.8808  27.6194  28.2715  29.0421

          k = 0.0000 0.3849 0.5424 (  5051 PWs)   bands (ev):

   -53.8761 -53.8731 -41.9986 -41.9850 -41.9704 -41.9627 -41.9621 -41.9548
   -22.1919 -22.1816 -22.1641 -22.1609 -22.1589 -22.1559 -14.9357 -14.9248
   -14.8622 -14.8556 -14.8390 -14.8210 -14.6812 -14.6241 -14.6220 -14.5777
   -14.5561 -14.5399 -14.4875 -14.4700 -14.4588 -14.4413 -14.4360 -14.4117
    14.5410  14.5520  14.6908  14.7640  14.8437  14.9671  15.0771  15.1892
    15.3196  15.4308  15.5304  15.5785  15.9240  16.2646  16.4176  16.6346
    16.9444  17.2056  17.2635  17.3177  17.3591  17.7502  17.8142  17.8558
    18.1198  18.1774  18.3073  18.4219  18.7786  18.7956  19.0635  19.1328
    19.4843  19.7362  19.9001  20.1020  20.1442  20.2709  20.2913  20.5444
    20.7365  21.0518  21.2781  22.1044  23.0227  23.4964  23.9838  24.1279
    27.6339  28.2398  28.4294  28.9665

          k = 0.0000-0.5774 0.0000 (  5068 PWs)   bands (ev):

   -53.8775 -53.8762 -42.0164 -41.9983 -41.9772 -41.9608 -41.9431 -41.9406
   -22.2035 -22.1973 -22.1625 -22.1616 -22.1582 -22.1529 -14.9607 -14.8603
   -14.8247 -14.8119 -14.7908 -14.7212 -14.7201 -14.6600 -14.6298 -14.6250
   -14.6030 -14.5793 -14.5388 -14.5303 -14.5097 -14.4476 -14.4004 -14.3917
    14.5777  14.6864  14.7561  14.8104  14.8424  14.9195  15.0637  15.3402
    15.3729  15.4699  15.5989  15.6822  15.7780  16.6820  16.7981  16.8168
    16.8363  17.0181  17.1765  17.2014  17.2112  17.3490  17.4747  17.5799
    17.7310  18.0742  18.2748  18.2825  18.5092  18.6592  18.8208  18.8526
    19.1059  19.2801  19.4732  19.8741  19.9865  20.3760  20.4633  20.5327
    21.0866  21.2010  22.0252  23.0110  25.7648  26.0265  26.0616  26.4324
    26.8205  27.1250  27.4987  27.6360

          k = 0.0000-0.5774 0.1808 (  5072 PWs)   bands (ev):

   -53.8773 -53.8770 -42.0131 -41.9964 -41.9750 -41.9630 -41.9470 -41.9426
   -22.1981 -22.1947 -22.1715 -22.1616 -22.1611 -22.1550 -14.9465 -14.8949
   -14.8345 -14.8103 -14.8055 -14.7136 -14.6967 -14.6519 -14.6394 -14.6212
   -14.6204 -14.6112 -14.5399 -14.4899 -14.4834 -14.4356 -14.4116 -14.4045
    14.6039  14.6700  14.7558  14.8075  14.8388  15.0250  15.1172  15.3007
    15.4010  15.4856  15.5181  15.7514  15.9418  16.4872  16.6371  16.9008
    16.9436  17.0068  17.0459  17.0870  17.1563  17.5751  17.6036  17.6969
    17.8091  17.9879  18.2250  18.4128  18.5007  18.6710  18.8829  18.9730
    19.1276  19.1839  19.2742  19.8729  20.0794  20.1906  20.2821  20.4495
    20.9180  21.2340  22.1669  23.1507  24.4410  24.5803  26.3657  26.7014
    27.0848  27.5194  27.6177  27.8457

          k = 0.0000-0.5774 0.3616 (  5090 PWs)   bands (ev):

   -53.8796 -53.8785 -42.0032 -41.9923 -41.9706 -41.9677 -41.9569 -41.9493
   -22.2003 -22.1965 -22.1710 -22.1706 -22.1659 -22.1639 -14.9283 -14.9179
   -14.8451 -14.8405 -14.8020 -14.7311 -14.6920 -14.6791 -14.6789 -14.6152
   -14.5898 -14.5788 -14.5235 -14.4660 -14.4627 -14.4606 -14.4187 -14.4183
    14.6595  14.6911  14.7362  14.8399  14.9203  15.0692  15.1967  15.2523
    15.2711  15.6571  15.6891  15.7771  16.2394  16.3106  16.5371  16.6234
    16.9219  16.9721  16.9725  17.1841  17.2662  17.6425  17.7301  17.8248
    17.9661  18.0055  18.2361  18.2484  18.5248  18.6479  18.6987  18.9616
    19.3020  19.3650  19.3668  19.6144  20.0324  20.0997  20.2406  20.3671
    20.4679  21.4229  22.4946  22.7743  23.0426  23.3844  25.5435  25.5765
    27.1199  27.9688  28.2991  28.6612

          k = 0.0000-0.5774 0.5424 (  5080 PWs)   bands (ev):

   -53.8792 -53.8766 -41.9908 -41.9870 -41.9724 -41.9689 -41.9630 -41.9564
   -22.1940 -22.1912 -22.1729 -22.1710 -22.1658 -22.1597 -14.9315 -14.9183
   -14.8377 -14.8182 -14.7996 -14.7932 -14.6874 -14.6821 -14.6576 -14.6181
   -14.5952 -14.5454 -14.5053 -14.4738 -14.4604 -14.4495 -14.4314 -14.4203
    14.6996  14.8266  14.8301  14.8505  14.8718  14.9766  15.0982  15.1272
    15.4912  15.6919  15.9156  15.9167  16.2205  16.3346  16.4876  16.6242
    16.7049  16.8090  17.1980  17.4316  17.4717  17.7643  17.7815  17.7975
    17.8406  17.9538  18.2318  18.2500  18.2636  18.3010  18.3651  18.7701
    19.1894  19.5103  19.9524  20.0678  20.1732  20.1749  20.2920  20.3526
    20.7655  21.3132  21.3774  21.6125  23.1600  23.7091  24.1971  24.3859
    28.1318  28.7614  28.8576  29.3549

          k = 0.2000 0.1155 0.0000 (  5087 PWs)   bands (ev):

   -53.8802 -53.8769 -42.0317 -41.9820 -41.9765 -41.9643 -41.9424 -41.9418
   -22.2075 -22.1995 -22.1733 -22.1690 -22.1612 -22.1579 -14.9762 -14.9692
   -14.8458 -14.7963 -14.7949 -14.7786 -14.7694 -14.7328 -14.7122 -14.6213
   -14.5218 -14.5108 -14.4833 -14.4493 -14.4446 -14.4120 -14.4038 -14.3965
    13.9278  14.3519  14.4411  14.4667  14.5137  14.6052  14.6853  14.8485
    14.9490  15.2755  15.3550  15.6201  15.9422  16.5769  17.0032  17.0982
    17.1949  17.2478  17.3141  17.4802  17.5912  17.7363  17.8014  17.9601
    18.0250  18.0575  18.1555  18.2476  18.3390  18.4259  19.3590  19.8819
    20.0376  20.0950  20.1882  20.3840  20.5153  20.5873  20.8614  21.0695
    21.2634  21.3865  22.2669  22.8791  23.0152  25.1886  25.4555  26.6080
    26.7575  27.0747  27.7872  27.8750

          k = 0.2000 0.1155 0.1808 (  5078 PWs)   bands (ev):

   -53.8796 -53.8757 -42.0283 -41.9798 -41.9746 -41.9670 -41.9443 -41.9436
   -22.2044 -22.1971 -22.1705 -22.1639 -22.1622 -22.1571 -14.9681 -14.9654
   -14.8575 -14.8443 -14.8257 -14.7702 -14.7454 -14.6992 -14.6919 -14.6021
   -14.5197 -14.5018 -14.4796 -14.4481 -14.4408 -14.4230 -14.4121 -14.4020
    14.0916  14.3862  14.4067  14.4579  14.4985  14.5080  14.5876  14.9256
    15.1693  15.1830  15.5238  15.5428  16.2143  16.4656  16.8409  16.9780
    17.1104  17.2102  17.2322  17.3078  17.4178  17.4223  17.5323  17.8336
    17.8389  18.4227  18.5470  18.8056  18.8396  19.0523  19.1774  19.8700
    19.9581  20.0117  20.0979  20.3996  20.4043  20.5012  20.8996  20.9844
    21.1297  21.1938  22.1870  22.2237  22.9634  25.0701  25.2400  25.7105
    26.9630  27.0954  27.6210  28.1511

          k = 0.2000 0.1155 0.3616 (  5067 PWs)   bands (ev):

   -53.8786 -53.8742 -42.0190 -41.9769 -41.9721 -41.9701 -41.9500 -41.9477
   -22.1959 -22.1835 -22.1709 -22.1664 -22.1643 -22.1576 -14.9637 -14.9575
   -14.8917 -14.8773 -14.8219 -14.8012 -14.7705 -14.6375 -14.6062 -14.5477
   -14.5352 -14.5084 -14.4850 -14.4676 -14.4437 -14.4258 -14.4252 -14.4003
    14.2688  14.2709  14.4622  14.5104  14.6244  14.6425  14.8153  14.8918
    15.2786  15.3201  15.3452  15.3783  15.8028  16.4306  16.6757  16.9590
    17.0141  17.0423  17.0562  17.2502  17.4150  17.5886  17.6698  18.0377
    18.0808  18.5672  18.8017  18.8558  19.2760  19.3974  19.5899  19.5959
    19.9487  20.0112  20.0996  20.1902  20.3125  20.3837  20.5669  20.7511
    20.8905  21.2379  21.3500  22.2334  22.8264  24.1368  24.4958  24.5435
    26.8314  27.4430  27.4714  28.4646

          k = 0.2000 0.1155 0.5424 (  5053 PWs)   bands (ev):

   -53.8765 -53.8734 -42.0037 -41.9882 -41.9658 -41.9629 -41.9579 -41.9556
   -22.1890 -22.1784 -22.1668 -22.1645 -22.1609 -22.1600 -14.9571 -14.9554
   -14.8956 -14.8825 -14.8705 -14.8533 -14.6868 -14.5981 -14.5847 -14.5401
   -14.5377 -14.5073 -14.4901 -14.4532 -14.4530 -14.4323 -14.4269 -14.4066
    14.3384  14.3435  14.5216  14.5808  14.6702  14.8154  14.9711  15.0509
    15.1713  15.1745  15.2612  15.3326  15.5708  16.0430  16.6911  16.7645
    17.1012  17.1095  17.1633  17.3203  17.5602  17.6473  17.9299  17.9554
    18.2514  18.7150  18.9785  19.0046  19.2067  19.3652  19.3862  19.7609
    19.8336  19.9458  19.9569  20.1080  20.3164  20.3375  20.5147  20.5181
    20.8828  21.2158  21.4212  22.6117  22.7607  23.0082  23.5750  23.6786
    27.1409  27.6579  27.7463  28.2304

          k = 0.2000 0.3079 0.0000 (  5075 PWs)   bands (ev):

   -53.8791 -53.8758 -42.0250 -41.9864 -41.9800 -41.9605 -41.9430 -41.9424
   -22.1979 -22.1966 -22.1714 -22.1663 -22.1599 -22.1570 -14.9656 -14.9203
   -14.8112 -14.8003 -14.7938 -14.7789 -14.7659 -14.7063 -14.6624 -14.6352
   -14.5378 -14.5229 -14.5126 -14.5062 -14.4429 -14.4342 -14.4152 -14.3954
    14.3036  14.5746  14.6052  14.6207  14.6788  14.8457  14.8592  14.9707
    15.0955  15.3163  15.4841  15.6142  16.2240  16.3732  16.8715  16.9904
    17.1135  17.2176  17.3636  17.3973  17.4345  17.5697  17.6771  17.7129
    17.7994  17.8241  18.0890  18.2435  18.2910  18.4583  18.8903  19.5359
    19.6082  19.8098  19.8738  20.3728  20.4493  20.5024  20.5264  20.8283
    20.9513  21.1763  21.2747  23.8151  24.0506  24.6519  26.5847  26.6461
    27.4086  27.4899  27.5587  27.8308

          k = 0.2000 0.3079 0.1808 (  5088 PWs)   bands (ev):

   -53.8801 -53.8776 -42.0214 -41.9852 -41.9798 -41.9628 -41.9456 -41.9448
   -22.2031 -22.1992 -22.1726 -22.1706 -22.1628 -22.1592 -14.9512 -14.9212
   -14.8601 -14.8341 -14.8011 -14.7654 -14.7139 -14.7034 -14.6841 -14.6103
   -14.5485 -14.5458 -14.5010 -14.4895 -14.4367 -14.4333 -14.4201 -14.4160
    14.4380  14.5251  14.5935  14.6535  14.6842  14.6957  14.9032  15.0574
    15.2261  15.4411  15.4790  15.4954  16.3514  16.4894  16.7041  16.8745
    16.9847  17.0433  17.1441  17.2267  17.4061  17.5495  17.6104  17.7014
    17.8287  18.3177  18.4226  18.4385  18.5598  18.6613  18.7026  19.3764
    19.5531  19.8669  19.9266  20.2123  20.2217  20.3886  20.5273  20.7767
    20.9814  21.0631  21.2777  23.1728  23.9293  24.6852  25.7534  26.0023
    27.2042  27.3260  27.9229  28.1584

          k = 0.2000 0.3079 0.3616 (  5068 PWs)   bands (ev):

   -53.8788 -53.8746 -42.0128 -41.9789 -41.9774 -41.9664 -41.9516 -41.9494
   -22.2002 -22.1853 -22.1693 -22.1674 -22.1606 -22.1551 -14.9308 -14.9175
   -14.8878 -14.8614 -14.8040 -14.7860 -14.7336 -14.6702 -14.6109 -14.5687
   -14.5630 -14.5409 -14.4900 -14.4788 -14.4675 -14.4399 -14.4221 -14.4134
    14.4440  14.4769  14.6406  14.7392  14.8275  14.8999  15.0150  15.1561
    15.2388  15.3114  15.4414  15.6056  16.0222  16.3867  16.6799  16.7625
    16.8522  16.9262  17.2017  17.2623  17.4131  17.5689  17.5982  17.8744
    18.1102  18.2647  18.4498  18.6052  18.7872  18.9882  19.0700  19.3459
    19.3712  19.7886  19.9132  19.9796  20.0689  20.1220  20.3911  20.6613
    21.0167  21.1306  21.3342  21.8991  24.0766  24.2230  24.2914  24.7700
    27.5430  27.7369  28.2231  28.3999

          k = 0.2000 0.3079 0.5424 (  5058 PWs)   bands (ev):

   -53.8761 -53.8748 -41.9993 -41.9854 -41.9704 -41.9639 -41.9600 -41.9559
   -22.1895 -22.1826 -22.1657 -22.1633 -22.1628 -22.1595 -14.9218 -14.9210
   -14.8896 -14.8749 -14.8381 -14.8203 -14.6828 -14.6363 -14.5971 -14.5872
   -14.5476 -14.5165 -14.4883 -14.4831 -14.4682 -14.4439 -14.4227 -14.4195
    14.5147  14.5434  14.6896  14.7396  14.8561  14.9519  15.1498  15.1946
    15.2487  15.2798  15.4868  15.5931  15.9042  16.2829  16.4451  16.6116
    16.9496  16.9884  17.3075  17.3741  17.4855  17.5800  17.9067  17.9175
    18.1080  18.2253  18.2369  18.5754  18.9181  18.9280  18.9970  19.1422
    19.4768  19.8206  19.9567  19.9804  20.1503  20.3596  20.4883  20.7327
    20.8141  21.1013  21.4317  21.6749  22.5555  22.7574  24.5693  24.7810
    27.3803  27.5201  28.7788  29.1046

          k = 0.2000 0.5004 0.0000 (  5072 PWs)   bands (ev):

   -53.8780 -53.8766 -42.0156 -41.9939 -41.9847 -41.9559 -41.9453 -41.9418
   -22.1966 -22.1945 -22.1733 -22.1620 -22.1608 -22.1547 -14.9546 -14.8509
   -14.8038 -14.8004 -14.7966 -14.7509 -14.7366 -14.6879 -14.6586 -14.6328
   -14.5825 -14.5513 -14.5233 -14.5118 -14.4881 -14.4660 -14.4292 -14.3894
    14.6206  14.7647  14.7980  14.8494  14.9591  15.0685  15.0783  15.2485
    15.3125  15.3629  15.6041  15.6598  15.9788  16.4269  16.5815  16.6996
    16.8958  17.1293  17.1350  17.1948  17.3090  17.3971  17.4653  17.4677
    17.6856  17.8820  18.1518  18.4750  18.4776  18.6526  18.7866  18.8693
    19.2686  19.5181  19.7403  19.9978  20.1796  20.3761  20.4366  20.4795
    20.7214  20.9113  21.1812  24.0815  24.9719  25.5888  26.0811  26.6000
    26.7597  26.8963  27.4691  27.9998

          k = 0.2000 0.5004 0.1808 (  5079 PWs)   bands (ev):

   -53.8795 -53.8767 -42.0126 -41.9924 -41.9833 -41.9576 -41.9475 -41.9451
   -22.1992 -22.1929 -22.1753 -22.1673 -22.1623 -22.1558 -14.9400 -14.8724
   -14.8368 -14.8195 -14.7954 -14.7522 -14.6935 -14.6739 -14.6367 -14.6354
   -14.6252 -14.5915 -14.5058 -14.4895 -14.4718 -14.4500 -14.4309 -14.4098
    14.6552  14.8048  14.8192  14.8534  14.9207  15.0479  15.1309  15.2395
    15.3654  15.4045  15.4983  15.6730  16.1583  16.4148  16.7165  16.7417
    16.7889  16.9134  17.1053  17.1160  17.2244  17.3405  17.5168  17.7321
    17.7724  18.1080  18.2126  18.3863  18.4450  18.6161  18.8058  18.9204
    19.1616  19.5223  19.7462  19.9007  20.1329  20.1986  20.2359  20.5009
    20.8284  20.8759  21.1390  24.2530  24.3360  25.1378  25.1613  25.8678
    26.5799  27.8570  28.0676  28.5169

          k = 0.2000 0.5004 0.3616 (  5085 PWs)   bands (ev):

   -53.8802 -53.8772 -42.0036 -41.9879 -41.9800 -41.9614 -41.9556 -41.9511
   -22.2022 -22.1951 -22.1758 -22.1679 -22.1637 -22.1568 -14.9043 -14.8971
   -14.8637 -14.8375 -14.8017 -14.7719 -14.6830 -14.6791 -14.6387 -14.6311
   -14.6005 -14.5686 -14.5116 -14.4759 -14.4638 -14.4593 -14.4291 -14.4249
    14.6918  14.7732  14.8530  14.9313  14.9739  15.0935  15.1676  15.1962
    15.2683  15.4717  15.7393  15.8160  16.1890  16.4084  16.5675  16.6752
    16.7556  16.9658  17.0252  17.1726  17.3049  17.3605  17.7123  17.8124
    17.9356  18.0012  18.0550  18.0938  18.5618  18.7124  18.7778  19.1224
    19.2804  19.5322  19.5834  19.7826  19.9595  20.0347  20.2903  20.4475
    20.5969  20.9928  21.2814  22.7636  23.4775  24.1695  24.7161  25.6842
    27.4481  27.9390  28.8640  29.0055

          k = 0.2000 0.5004 0.5424 (  5080 PWs)   bands (ev):

   -53.8785 -53.8773 -41.9911 -41.9839 -41.9769 -41.9683 -41.9610 -41.9573
   -22.1951 -22.1910 -22.1713 -22.1683 -22.1646 -22.1620 -14.9045 -14.8867
   -14.8639 -14.8451 -14.8084 -14.8014 -14.6828 -14.6781 -14.6304 -14.6248
   -14.5638 -14.5468 -14.5116 -14.5065 -14.4593 -14.4522 -14.4347 -14.4242
    14.7411  14.8282  14.8670  14.8990  14.9998  15.0422  15.0786  15.1987
    15.4128  15.5638  15.9370  16.0484  16.1917  16.3803  16.4812  16.5876
    16.7570  16.9122  17.1039  17.2570  17.4118  17.4615  17.5673  17.7749
    17.8539  17.8889  18.1472  18.1954  18.3064  18.3755  18.5371  18.8941
    19.4728  19.7464  19.9066  20.0098  20.1688  20.3298  20.3392  20.6196
    20.7167  21.0012  21.3653  21.5891  21.9915  22.6232  25.3761  25.9915
    27.4162  28.0178  28.9997  29.7729

          k = 0.2000-0.4619 0.0000 (  5078 PWs)   bands (ev):

   -53.8792 -53.8766 -42.0173 -41.9926 -41.9845 -41.9566 -41.9451 -41.9421
   -22.1989 -22.1968 -22.1724 -22.1669 -22.1599 -22.1558 -14.9588 -14.8618
   -14.8054 -14.7968 -14.7968 -14.7604 -14.7426 -14.6879 -14.6585 -14.6178
   -14.5983 -14.5482 -14.5246 -14.5094 -14.4795 -14.4589 -14.4292 -14.3913
    14.6209  14.7072  14.7506  14.8225  14.9170  15.0375  15.0411  15.2018
    15.2788  15.3118  15.6057  15.6584  16.0846  16.4505  16.5161  16.8105
    16.9328  17.1104  17.1681  17.2255  17.3437  17.4379  17.4930  17.5010
    17.6908  17.8760  18.0891  18.4348  18.4524  18.6858  18.7586  18.9481
    19.2712  19.5570  19.7511  20.1112  20.3189  20.3735  20.4467  20.4878
    20.7217  20.9170  21.1924  24.0902  24.8535  25.2672  26.1847  26.6004
    26.8323  27.2066  27.4702  28.0123

          k = 0.2000-0.4619 0.1808 (  5075 PWs)   bands (ev):

   -53.8788 -53.8764 -42.0138 -41.9908 -41.9829 -41.9583 -41.9468 -41.9450
   -22.1985 -22.1941 -22.1709 -22.1680 -22.1600 -22.1553 -14.9405 -14.8750
   -14.8465 -14.8195 -14.7880 -14.7587 -14.6950 -14.6826 -14.6389 -14.6273
   -14.6177 -14.5826 -14.5041 -14.4917 -14.4632 -14.4461 -14.4305 -14.4102
    14.6375  14.7672  14.7775  14.8254  14.8893  14.9648  15.1270  15.1987
    15.3436  15.4116  15.4717  15.6702  16.2165  16.4248  16.7018  16.7711
    16.8195  16.9171  17.1288  17.1896  17.2148  17.3311  17.5041  17.7688
    17.8511  18.0908  18.2327  18.3767  18.4513  18.6134  18.8165  18.9545
    19.1326  19.5953  19.8009  19.9545  20.1503  20.2537  20.2742  20.5467
    20.8254  20.8891  21.1365  24.1035  24.2703  25.0097  25.3192  25.8586
    26.7330  27.7866  28.0842  28.4620

          k = 0.2000-0.4619 0.3616 (  5078 PWs)   bands (ev):

   -53.8797 -53.8761 -42.0051 -41.9858 -41.9797 -41.9623 -41.9546 -41.9510
   -22.2005 -22.1932 -22.1724 -22.1689 -22.1620 -22.1549 -14.9079 -14.8957
   -14.8704 -14.8428 -14.7982 -14.7754 -14.6895 -14.6853 -14.6290 -14.6201
   -14.5973 -14.5608 -14.5064 -14.4781 -14.4599 -14.4557 -14.4270 -14.4243
    14.6464  14.7206  14.8136  14.9229  14.9734  15.0945  15.1342  15.1916
    15.2541  15.4335  15.6870  15.8023  16.1727  16.3447  16.6184  16.6967
    16.7848  16.9934  17.0156  17.1982  17.2551  17.3999  17.7048  17.8623
    18.0066  18.0316  18.1243  18.1644  18.6123  18.6852  18.7657  19.1332
    19.2637  19.5968  19.6262  19.8333  19.9667  20.0408  20.3558  20.4455
    20.6752  20.9980  21.2600  22.5913  23.6390  24.1599  24.7107  25.4667
    27.5158  28.0297  28.7416  28.8971

          k = 0.2000-0.4619 0.5424 (  5069 PWs)   bands (ev):

   -53.8774 -53.8759 -41.9927 -41.9834 -41.9756 -41.9672 -41.9607 -41.9569
   -22.1905 -22.1881 -22.1683 -22.1662 -22.1635 -22.1598 -14.9063 -14.8891
   -14.8672 -14.8563 -14.8062 -14.8017 -14.6826 -14.6753 -14.6239 -14.6165
   -14.5594 -14.5379 -14.5091 -14.5011 -14.4595 -14.4484 -14.4322 -14.4235
    14.7011  14.7759  14.8524  14.8661  14.9996  15.0219  15.1106  15.2038
    15.3745  15.5123  15.8838  15.9526  16.1893  16.3382  16.4702  16.5707
    16.7899  16.9988  17.0599  17.2436  17.4507  17.5045  17.6224  17.8083
    17.9144  18.0312  18.2033  18.2419  18.2499  18.3889  18.6006  18.9312
    19.4586  19.7603  19.9054  20.0131  20.1788  20.3237  20.3776  20.6641
    20.7912  21.0081  21.2882  21.5725  22.1101  22.6131  25.3113  25.7829
    27.4066  27.9083  29.1286  29.6485

          k = 0.2000-0.2694 0.0000 (  5077 PWs)   bands (ev):

   -53.8789 -53.8766 -42.0263 -41.9856 -41.9790 -41.9616 -41.9429 -41.9423
   -22.1986 -22.1961 -22.1705 -22.1654 -22.1637 -22.1588 -14.9673 -14.9337
   -14.8211 -14.8001 -14.7935 -14.7806 -14.7677 -14.7134 -14.6759 -14.6300
   -14.5237 -14.5221 -14.5059 -14.4998 -14.4420 -14.4272 -14.4091 -14.3953
    14.2068  14.5116  14.5688  14.6194  14.6283  14.7603  14.8139  14.9375
    15.0675  15.3211  15.4295  15.6159  16.1560  16.4221  16.9594  17.0126
    17.1394  17.2245  17.3980  17.4414  17.4494  17.6183  17.7032  17.7537
    17.8542  17.8676  18.1199  18.1940  18.2745  18.4307  18.9692  19.6539
    19.7189  19.8554  19.9619  20.3765  20.5047  20.5178  20.5439  20.8749
    20.9811  21.3001  21.4186  23.6364  23.7732  24.7306  26.6192  26.6878
    27.0854  27.5256  27.5469  28.1806

          k = 0.2000-0.2694 0.1808 (  5087 PWs)   bands (ev):

   -53.8806 -53.8769 -42.0233 -41.9839 -41.9782 -41.9640 -41.9454 -41.9444
   -22.2054 -22.1989 -22.1749 -22.1677 -22.1624 -22.1581 -14.9553 -14.9322
   -14.8594 -14.8365 -14.8084 -14.7683 -14.7221 -14.7033 -14.6890 -14.6074
   -14.5379 -14.5327 -14.4989 -14.4840 -14.4367 -14.4270 -14.4197 -14.4124
    14.3499  14.4935  14.5402  14.6042  14.6403  14.6526  14.8201  15.0260
    15.2129  15.3827  15.4827  15.5082  16.3327  16.4885  16.7262  16.9025
    17.0239  17.0893  17.1583  17.2531  17.4086  17.5841  17.6126  17.6979
    17.8048  18.3834  18.4467  18.5043  18.5544  18.7526  18.7830  19.4999
    19.6620  19.8942  20.0006  20.2435  20.2932  20.4073  20.5489  20.8247
    21.0133  21.0824  21.4695  22.9453  23.7106  24.7426  25.7625  26.0655
    26.9962  27.3132  27.9864  28.1147

          k = 0.2000-0.2694 0.3616 (  5068 PWs)   bands (ev):

   -53.8790 -53.8743 -42.0144 -41.9782 -41.9760 -41.9676 -41.9514 -41.9489
   -22.1985 -22.1829 -22.1701 -22.1674 -22.1622 -22.1574 -14.9379 -14.9285
   -14.8887 -14.8654 -14.8103 -14.7871 -14.7460 -14.6633 -14.6095 -14.5610
   -14.5490 -14.5378 -14.4905 -14.4708 -14.4684 -14.4387 -14.4197 -14.4100
    14.3991  14.4223  14.5983  14.6763  14.7801  14.8598  14.9524  15.0938
    15.2481  15.3196  15.4107  15.5463  15.9602  16.4521  16.6179  16.8015
    16.8967  16.9414  17.1749  17.3195  17.4453  17.5495  17.5892  17.9097
    18.1198  18.3237  18.5054  18.7167  18.8364  19.0773  19.2746  19.4086
    19.4445  19.8296  19.9944  20.0161  20.1068  20.1763  20.3806  20.6725
    20.9863  21.1904  21.5161  21.7435  23.8931  24.1016  24.4135  24.7350
    27.3205  27.7307  27.9919  28.3526

          k = 0.2000-0.2694 0.5424 (  5058 PWs)   bands (ev):

   -53.8766 -53.8744 -42.0006 -41.9863 -41.9695 -41.9633 -41.9596 -41.9555
   -22.1897 -22.1841 -22.1656 -22.1639 -22.1622 -22.1586 -14.9307 -14.9257
   -14.8915 -14.8767 -14.8483 -14.8288 -14.6834 -14.6258 -14.5949 -14.5740
   -14.5455 -14.5172 -14.4836 -14.4740 -14.4693 -14.4447 -14.4240 -14.4176
    14.4716  14.4902  14.6471  14.7029  14.8095  14.9295  15.1233  15.1862
    15.1994  15.2660  15.4006  15.5194  15.8187  16.2223  16.4984  16.6406
    16.9731  17.0468  17.2817  17.3967  17.4751  17.6015  17.9012  17.9250
    18.1400  18.3324  18.3859  18.6787  18.9966  19.0735  19.1772  19.2294
    19.5295  19.8393  19.9467  20.0027  20.1646  20.3579  20.4687  20.7074
    20.7932  21.1387  21.3948  21.8995  22.5534  22.9428  24.2384  24.5746
    27.3150  27.5656  28.5091  28.9153

          k = 0.2000-0.0770 0.0000 (  5083 PWs)   bands (ev):

   -53.8796 -53.8767 -42.0318 -41.9814 -41.9764 -41.9641 -41.9423 -41.9420
   -22.2067 -22.2005 -22.1706 -22.1650 -22.1627 -22.1572 -14.9771 -14.9730
   -14.8472 -14.7976 -14.7942 -14.7782 -14.7693 -14.7350 -14.7175 -14.6215
   -14.5211 -14.5097 -14.4718 -14.4484 -14.4336 -14.4094 -14.4044 -14.3987
    13.8913  14.3385  14.4069  14.4466  14.4883  14.5996  14.6714  14.8412
    14.9238  15.2572  15.3634  15.6210  15.9101  16.6022  17.0046  17.0777
    17.2033  17.2515  17.3130  17.4663  17.6196  17.7425  17.8254  17.9450
    18.0551  18.0914  18.1894  18.2756  18.3581  18.4343  19.4391  19.9220
    20.0390  20.1392  20.2229  20.3795  20.5280  20.5843  20.9094  21.0802
    21.3989  21.4436  22.2222  22.7439  23.1087  24.9382  25.5408  26.3990
    26.7772  27.0948  27.7232  27.9409

          k = 0.2000-0.0770 0.1808 (  5080 PWs)   bands (ev):

   -53.8795 -53.8762 -42.0286 -41.9791 -41.9750 -41.9670 -41.9444 -41.9437
   -22.2052 -22.1984 -22.1677 -22.1653 -22.1632 -22.1588 -14.9718 -14.9695
   -14.8575 -14.8468 -14.8288 -14.7714 -14.7499 -14.6991 -14.6932 -14.6034
   -14.5180 -14.5024 -14.4714 -14.4488 -14.4350 -14.4199 -14.4114 -14.4014
    14.0573  14.3736  14.3925  14.4370  14.4756  14.4784  14.5649  14.9120
    15.1445  15.1733  15.5300  15.5471  16.1934  16.4616  16.8648  16.9941
    17.1016  17.2227  17.2288  17.3221  17.4042  17.4283  17.5094  17.8385
    17.8573  18.4358  18.5482  18.8685  18.9004  19.0896  19.2548  19.9136
    19.9629  20.0637  20.1050  20.3941  20.4351  20.5142  20.9275  21.0066
    21.1849  21.3199  22.0696  22.1572  23.0347  24.8246  25.2923  25.6641
    26.9285  27.0726  27.6768  28.1581

          k = 0.2000-0.0770 0.3616 (  5063 PWs)   bands (ev):

   -53.8785 -53.8734 -42.0197 -41.9765 -41.9720 -41.9697 -41.9495 -41.9478
   -22.1965 -22.1825 -22.1709 -22.1646 -22.1623 -22.1561 -14.9659 -14.9600
   -14.8914 -14.8795 -14.8219 -14.8038 -14.7718 -14.6322 -14.6043 -14.5492
   -14.5331 -14.5061 -14.4827 -14.4645 -14.4436 -14.4277 -14.4184 -14.3991
    14.2502  14.2528  14.4472  14.4865  14.5910  14.6161  14.8025  14.8620
    15.2841  15.3123  15.3340  15.3633  15.7848  16.4066  16.7160  16.9653
    17.0008  17.0652  17.0757  17.2278  17.3915  17.6135  17.6742  18.0503
    18.0799  18.6207  18.8034  18.9002  19.3354  19.4897  19.6109  19.6516
    19.9664  20.0213  20.1087  20.2079  20.3032  20.4162  20.5884  20.8708
    21.0146  21.1936  21.3307  22.0902  22.8704  24.1734  24.3901  24.4629
    26.8629  27.3479  27.4986  28.2652

          k = 0.2000-0.0770 0.5424 (  5055 PWs)   bands (ev):

   -53.8763 -53.8740 -42.0043 -41.9886 -41.9657 -41.9632 -41.9574 -41.9551
   -22.1871 -22.1802 -22.1670 -22.1653 -22.1643 -22.1591 -14.9628 -14.9579
   -14.8980 -14.8854 -14.8717 -14.8558 -14.6875 -14.5980 -14.5786 -14.5369
   -14.5366 -14.5044 -14.4926 -14.4551 -14.4496 -14.4328 -14.4219 -14.4090
    14.3203  14.3247  14.5082  14.5588  14.6530  14.7915  14.9430  15.0375
    15.1579  15.1670  15.2467  15.3171  15.5377  16.0194  16.7260  16.7839
    17.0779  17.1283  17.1419  17.3393  17.5506  17.6716  17.9354  17.9560
    18.2812  18.7546  19.0244  19.0705  19.2646  19.4164  19.4232  19.7855
    19.8723  19.9502  19.9719  20.0991  20.2840  20.3516  20.5254  20.6059
    20.9329  21.2007  21.5355  22.4992  22.7488  23.0788  23.3956  23.7305
    27.1012  27.5139  27.7381  28.1514

          k = 0.4000 0.2309 0.0000 (  5085 PWs)   bands (ev):

   -53.8802 -53.8771 -42.0202 -41.9944 -41.9772 -41.9620 -41.9434 -41.9419
   -22.2057 -22.1961 -22.1704 -22.1694 -22.1602 -22.1599 -14.9627 -14.8850
   -14.8229 -14.8102 -14.7927 -14.7447 -14.7411 -14.6663 -14.6588 -14.6318
   -14.5897 -14.5457 -14.5284 -14.5149 -14.5082 -14.4451 -14.3976 -14.3941
    14.4905  14.6410  14.6736  14.7328  14.8876  14.9060  14.9379  15.1091
    15.3038  15.3277  15.6033  15.6519  16.0504  16.4698  16.8310  16.9644
    16.9819  17.2134  17.2300  17.2339  17.2666  17.3877  17.4566  17.6049
    17.8483  18.0574  18.1540  18.2177  18.4316  18.5183  18.6254  19.2587
    19.3212  19.6021  19.6049  19.9926  20.0284  20.3963  20.4419  20.5525
    21.0712  21.2256  22.0367  23.0024  24.8693  25.9808  26.4623  26.5211
    26.8846  27.0333  27.6914  27.7758

          k = 0.4000 0.2309 0.1808 (  5088 PWs)   bands (ev):

   -53.8802 -53.8777 -42.0173 -41.9929 -41.9755 -41.9639 -41.9468 -41.9432
   -22.2030 -22.1969 -22.1702 -22.1701 -22.1632 -22.1617 -14.9466 -14.9018
   -14.8450 -14.8189 -14.8059 -14.7204 -14.7170 -14.6745 -14.6717 -14.6138
   -14.5911 -14.5759 -14.5314 -14.4893 -14.4854 -14.4356 -14.4156 -14.4041
    14.5451  14.6255  14.6655  14.7336  14.8121  14.9982  15.0122  15.1513
    15.3749  15.3932  15.4944  15.6507  16.1707  16.5072  16.6063  16.9265
    17.0086  17.0132  17.0751  17.2205  17.2548  17.3848  17.6234  17.7520
    17.9871  18.0154  18.1842  18.4327  18.5496  18.5986  18.6476  19.2141
    19.3470  19.4316  19.5252  19.9890  20.0817  20.2145  20.3177  20.4608
    20.9264  21.2202  22.1592  23.1230  23.8020  25.0992  26.2001  26.3938
    26.9530  27.6040  27.6501  28.1425

          k = 0.4000 0.2309 0.3616 (  5084 PWs)   bands (ev):

   -53.8801 -53.8767 -42.0076 -41.9879 -41.9710 -41.9688 -41.9550 -41.9488
   -22.2024 -22.1912 -22.1723 -22.1675 -22.1660 -22.1614 -14.9315 -14.9204
   -14.8519 -14.8491 -14.8131 -14.7467 -14.7154 -14.6847 -14.6486 -14.5835
   -14.5734 -14.5728 -14.5221 -14.4645 -14.4612 -14.4570 -14.4233 -14.4125
    14.5789  14.5829  14.7301  14.7578  14.9262  15.0813  15.1923  15.1974
    15.2172  15.4048  15.6427  15.7812  16.0562  16.3649  16.5212  16.7701
    16.9567  16.9949  17.0193  17.2435  17.3965  17.4528  17.6669  17.8758
    18.0264  18.1528  18.2611  18.3344  18.5907  18.6829  18.9805  19.1316
    19.2889  19.4560  19.6152  19.6672  20.0379  20.1448  20.2509  20.3996
    20.4618  21.4142  22.3148  22.4983  23.3262  23.4113  25.3907  25.4399
    26.9904  27.7719  28.3956  28.9614

          k = 0.4000 0.2309 0.5424 (  5068 PWs)   bands (ev):

   -53.8777 -53.8754 -41.9947 -41.9849 -41.9722 -41.9658 -41.9631 -41.9557
   -22.1906 -22.1862 -22.1705 -22.1653 -22.1649 -22.1594 -14.9323 -14.9202
   -14.8453 -14.8381 -14.8191 -14.8048 -14.6873 -14.6511 -14.6436 -14.6027
   -14.5794 -14.5457 -14.4976 -14.4651 -14.4648 -14.4421 -14.4357 -14.4158
    14.6319  14.6736  14.7844  14.8122  14.8990  14.9976  15.0575  15.1822
    15.4140  15.6253  15.6558  15.8372  16.0538  16.3147  16.3851  16.6275
    16.8609  17.0717  17.2089  17.3619  17.4183  17.6814  17.7758  17.8961
    17.9958  18.0735  18.1712  18.1800  18.4717  18.5849  18.7116  18.9063
    19.3142  19.6006  19.9298  20.0916  20.1291  20.2167  20.2690  20.4693
    20.7505  21.1610  21.3002  21.8660  23.1101  23.6333  24.1182  24.2885
    27.9006  28.5423  28.6756  29.2719

          k = 0.4000 0.4234 0.0000 (  5078 PWs)   bands (ev):

   -53.8785 -53.8776 -42.0148 -41.9963 -41.9835 -41.9567 -41.9450 -41.9420
   -22.1996 -22.1955 -22.1718 -22.1640 -22.1620 -22.1582 -14.9545 -14.8483
   -14.8150 -14.8059 -14.7955 -14.7387 -14.7258 -14.6882 -14.6555 -14.6383
   -14.5740 -14.5657 -14.5266 -14.5130 -14.5127 -14.4607 -14.4216 -14.3914
    14.6312  14.7350  14.8298  14.8602  14.9220  15.0524  15.1207  15.3128
    15.3224  15.4716  15.6019  15.6616  15.8175  16.5506  16.6180  16.6492
    16.8700  17.0729  17.1420  17.1719  17.2693  17.3810  17.4621  17.4696
    17.7627  17.8240  18.2546  18.4805  18.5639  18.5972  18.6529  18.9356
    19.1961  19.5372  19.6321  19.8672  20.0230  20.3765  20.4364  20.4878
    20.8244  21.1365  21.1789  23.8579  25.2454  25.9410  26.1309  26.3450
    26.6331  26.7510  27.4885  28.2859

          k = 0.4000 0.4234 0.1808 (  5071 PWs)   bands (ev):

   -53.8780 -53.8764 -42.0116 -41.9944 -41.9816 -41.9581 -41.9470 -41.9444
   -22.1952 -22.1913 -22.1755 -22.1633 -22.1610 -22.1546 -14.9376 -14.8776
   -14.8208 -14.8191 -14.8067 -14.7335 -14.6944 -14.6564 -14.6453 -14.6385
   -14.6136 -14.6046 -14.5168 -14.4850 -14.4799 -14.4494 -14.4245 -14.4092
    14.6653  14.7713  14.8220  14.8762  14.9043  15.0773  15.1445  15.3107
    15.3709  15.4018  15.5559  15.6666  16.0624  16.4323  16.7234  16.7472
    16.7935  16.9487  17.0569  17.0872  17.1845  17.4455  17.5477  17.6645
    17.7595  18.0847  18.1889  18.4147  18.4767  18.6562  18.7196  18.9479
    19.1958  19.4136  19.5619  19.9257  20.0342  20.1710  20.2380  20.4634
    20.8855  20.9476  21.3228  24.0308  24.5725  24.8038  25.4379  26.0897
    26.6131  27.8227  27.9549  28.4933

          k = 0.4000 0.4234 0.3616 (  5075 PWs)   bands (ev):

   -53.8784 -53.8766 -42.0019 -41.9903 -41.9782 -41.9611 -41.9562 -41.9502
   -22.1978 -22.1934 -22.1722 -22.1663 -22.1623 -22.1540 -14.9060 -14.9003
   -14.8536 -14.8284 -14.8055 -14.7597 -14.6802 -14.6709 -14.6485 -14.6372
   -14.5915 -14.5746 -14.5185 -14.4710 -14.4636 -14.4596 -14.4262 -14.4226
    14.7112  14.7956  14.8476  14.9065  14.9466  15.0725  15.1659  15.2534
    15.2973  15.5215  15.7559  15.8120  16.2439  16.4276  16.5539  16.6097
    16.7356  16.9008  17.0696  17.1690  17.3313  17.4929  17.6267  17.8084
    17.9082  17.9349  18.0414  18.1417  18.5235  18.7313  18.7639  19.0741
    19.3316  19.4277  19.5297  19.6873  19.9724  20.0839  20.1925  20.4315
    20.5142  21.1042  21.5175  22.9267  23.1936  24.3812  24.4594  25.9821
    27.4939  27.5855  28.7928  29.1070

          k = 0.4000 0.4234 0.5424 (  5077 PWs)   bands (ev):

   -53.8781 -53.8770 -41.9890 -41.9856 -41.9759 -41.9686 -41.9620 -41.9570
   -22.1937 -22.1926 -22.1707 -22.1678 -22.1631 -22.1607 -14.9126 -14.8932
   -14.8526 -14.8237 -14.8156 -14.7969 -14.6824 -14.6822 -14.6359 -14.6307
   -14.5701 -14.5521 -14.5091 -14.4971 -14.4549 -14.4519 -14.4350 -14.4231
    14.7553  14.8523  14.8781  14.9268  14.9542  15.0157  15.0687  15.1754
    15.4604  15.6247  15.9526  16.0625  16.2314  16.4441  16.4788  16.5870
    16.6965  16.7755  17.2375  17.3337  17.4226  17.4652  17.5684  17.6979
    17.8124  17.8644  18.1232  18.1561  18.3499  18.3805  18.4635  18.8504
    19.4164  19.6820  19.9242  20.0414  20.1034  20.2899  20.3660  20.4498
    20.7117  21.0821  21.5068  21.6350  21.9659  22.8567  25.1064  25.9027
    27.5233  28.1698  29.2403  29.7355

          k = 0.4000 0.6158 0.0000 (  5071 PWs)   bands (ev):

   -53.8776 -53.8768 -42.0129 -41.9932 -41.9885 -41.9532 -41.9477 -41.9417
   -22.1993 -22.1953 -22.1699 -22.1623 -22.1594 -22.1526 -14.9526 -14.8286
   -14.8033 -14.8007 -14.7859 -14.7621 -14.7265 -14.7041 -14.6588 -14.6557
   -14.5552 -14.5450 -14.5223 -14.5178 -14.4852 -14.4741 -14.4459 -14.3889
    14.6066  14.8631  14.8878  14.9569  15.0248  15.1631  15.1689  15.2639
    15.2881  15.4432  15.5431  15.6034  16.0074  16.2904  16.4559  16.6344
    16.8798  17.1217  17.1643  17.1885  17.3166  17.3275  17.3799  17.4269
    17.5330  18.0314  18.1859  18.4471  18.5145  18.5633  18.6434  19.1071
    19.3171  19.4899  19.7826  20.0394  20.2150  20.3831  20.4225  20.4407
    20.4664  20.5201  21.1630  24.4645  24.8124  25.7220  26.1576  26.5777
    26.6424  26.8180  27.4005  27.4424

          k = 0.4000 0.6158 0.1808 (  5066 PWs)   bands (ev):

   -53.8773 -53.8760 -42.0096 -41.9915 -41.9871 -41.9541 -41.9486 -41.9454
   -22.1927 -22.1909 -22.1721 -22.1637 -22.1600 -22.1534 -14.9366 -14.8516
   -14.8336 -14.8116 -14.7882 -14.7622 -14.6813 -14.6682 -14.6555 -14.6472
   -14.6064 -14.5950 -14.4967 -14.4839 -14.4709 -14.4579 -14.4497 -14.4051
    14.6749  14.8807  14.8907  14.9802  15.0199  15.1193  15.1636  15.2344
    15.3604  15.3636  15.5500  15.5911  16.2287  16.3664  16.6068  16.6886
    16.8252  16.8864  16.9758  17.0828  17.3122  17.3645  17.4674  17.6039
    17.6436  18.2056  18.2708  18.3549  18.4375  18.5499  18.5937  19.1390
    19.2803  19.4769  19.7562  19.8609  20.1160  20.1596  20.2560  20.4804
    20.6490  20.7140  20.9652  24.6277  24.7411  25.0011  25.1341  25.5044
    26.1949  27.9994  28.1258  28.6609

          k = 0.4000 0.6158 0.3616 (  5090 PWs)   bands (ev):

   -53.8799 -53.8788 -42.0005 -41.9883 -41.9841 -41.9587 -41.9556 -41.9535
   -22.2014 -22.1999 -22.1766 -22.1688 -22.1648 -22.1575 -14.8947 -14.8870
   -14.8689 -14.8250 -14.8058 -14.7877 -14.6704 -14.6651 -14.6529 -14.6337
   -14.6058 -14.5826 -14.5083 -14.4777 -14.4693 -14.4591 -14.4330 -14.4301
    14.7776  14.8711  14.9100  14.9851  15.0447  15.0752  15.1302  15.2286
    15.2802  15.4449  15.7922  15.8448  16.2759  16.3673  16.4964  16.7480
    16.8346  16.9122  17.0304  17.1466  17.2230  17.2875  17.6675  17.7345
    17.8361  17.9103  17.9129  18.0771  18.5003  18.7832  18.8113  19.2347
    19.3151  19.5001  19.5347  19.8250  19.9170  19.9436  20.3506  20.4734
    20.6178  20.7948  20.9289  23.0838  23.4612  23.8002  25.1787  25.6276
    27.1829  28.4377  28.9457  29.2686

          k = 0.4000 0.6158 0.5424 (  5076 PWs)   bands (ev):

   -53.8781 -53.8767 -41.9875 -41.9832 -41.9798 -41.9689 -41.9600 -41.9584
   -22.1921 -22.1888 -22.1732 -22.1674 -22.1648 -22.1598 -14.8859 -14.8698
   -14.8660 -14.8411 -14.8186 -14.8066 -14.6778 -14.6756 -14.6370 -14.6237
   -14.5612 -14.5503 -14.5233 -14.5112 -14.4576 -14.4561 -14.4309 -14.4256
    14.8244  14.8910  14.9069  14.9387  15.0085  15.0329  15.1351  15.2057
    15.4322  15.5811  16.0256  16.1222  16.2629  16.3645  16.4470  16.6921
    16.8571  16.8958  17.0948  17.1600  17.2898  17.3811  17.4655  17.4953
    17.7646  17.8103  18.0998  18.1075  18.4151  18.4260  18.4846  18.8727
    19.6149  19.8232  19.8898  19.9459  20.2100  20.2760  20.4665  20.6336
    20.7295  20.8370  21.0693  21.6572  21.9685  22.2516  25.9673  26.3874
    27.4986  27.9366  28.4552  29.3171

          k = 0.4000-0.3464 0.0000 (  5079 PWs)   bands (ev):

   -53.8788 -53.8774 -42.0165 -41.9967 -41.9801 -41.9593 -41.9438 -41.9419
   -22.2000 -22.1961 -22.1754 -22.1641 -22.1609 -22.1564 -14.9546 -14.8671
   -14.8265 -14.8076 -14.7945 -14.7336 -14.7294 -14.6765 -14.6491 -14.6199
   -14.5990 -14.5653 -14.5283 -14.5187 -14.5119 -14.4512 -14.4064 -14.3911
    14.6165  14.6563  14.7579  14.7932  14.9045  14.9677  15.0471  15.3006
    15.3312  15.3740  15.6014  15.7237  15.8523  16.6058  16.6783  16.8145
    16.8795  17.1017  17.1431  17.1900  17.2425  17.4375  17.4593  17.5381
    17.7707  17.9190  18.2255  18.3700  18.5501  18.5802  18.7242  18.9265
    19.2255  19.3963  19.6324  19.9302  19.9774  20.3788  20.4487  20.5209
    20.9833  21.1975  21.5935  23.4283  25.4715  25.5706  26.3742  26.4980
    26.7437  26.9730  27.4522  27.9294

          k = 0.4000-0.3464 0.1808 (  5074 PWs)   bands (ev):

   -53.8780 -53.8769 -42.0133 -41.9947 -41.9780 -41.9610 -41.9468 -41.9437
   -22.1953 -22.1927 -22.1693 -22.1674 -22.1612 -22.1591 -14.9414 -14.8887
   -14.8324 -14.8170 -14.8030 -14.7269 -14.7029 -14.6638 -14.6417 -14.6240
   -14.6183 -14.5979 -14.5283 -14.4879 -14.4804 -14.4391 -14.4118 -14.4107
    14.6363  14.6728  14.7620  14.8082  14.8634  15.0390  15.0988  15.2842
    15.3800  15.4195  15.4999  15.7298  16.0395  16.4726  16.6568  16.8681
    16.8790  16.9692  17.0966  17.1373  17.1595  17.4240  17.6061  17.7587
    17.8287  18.0283  18.1760  18.4300  18.4859  18.6567  18.7993  18.9319
    19.1651  19.3724  19.4871  19.9643  20.0210  20.1868  20.2771  20.4595
    20.9095  21.1210  21.7377  23.5824  24.2385  24.8879  25.7474  26.4821
    27.0469  27.3526  27.9352  28.2455

          k = 0.4000-0.3464 0.3616 (  5081 PWs)   bands (ev):

   -53.8794 -53.8767 -42.0039 -41.9901 -41.9746 -41.9646 -41.9562 -41.9492
   -22.2004 -22.1924 -22.1735 -22.1644 -22.1640 -22.1606 -14.9212 -14.9092
   -14.8485 -14.8380 -14.8055 -14.7484 -14.6920 -14.6860 -14.6551 -14.6197
   -14.5848 -14.5742 -14.5198 -14.4660 -14.4630 -14.4578 -14.4225 -14.4171
    14.6524  14.7011  14.7885  14.8328  14.9395  15.0810  15.1976  15.2367
    15.2594  15.5253  15.7038  15.8244  16.1449  16.4319  16.4958  16.6873
    16.8076  16.9225  17.0577  17.2502  17.3037  17.4670  17.7682  17.7846
    17.9581  18.0468  18.1871  18.2051  18.5492  18.6864  18.7326  19.0362
    19.2968  19.4250  19.5280  19.6471  20.0065  20.1414  20.1853  20.4019
    20.4872  21.2968  21.9784  22.6738  23.2389  23.9229  24.8120  25.9762
    27.1507  27.9042  28.3070  29.0190

          k = 0.4000-0.3464 0.5424 (  5079 PWs)   bands (ev):

   -53.8779 -53.8777 -41.9918 -41.9858 -41.9740 -41.9680 -41.9624 -41.9563
   -22.1920 -22.1910 -22.1707 -22.1702 -22.1646 -22.1636 -14.9260 -14.9095
   -14.8456 -14.8274 -14.8091 -14.7961 -14.6872 -14.6775 -14.6429 -14.6227
   -14.5790 -14.5465 -14.5056 -14.4826 -14.4579 -14.4484 -14.4370 -14.4203
    14.7008  14.7924  14.8359  14.8678  14.9277  14.9997  15.0705  15.1650
    15.4578  15.6335  15.8632  15.9907  16.1581  16.3861  16.4252  16.6173
    16.7394  16.8644  17.2005  17.4162  17.4463  17.5587  17.6527  17.8649
    17.9226  17.9603  18.1687  18.2375  18.2532  18.3643  18.4973  18.8491
    19.3037  19.6041  19.9468  20.0665  20.1104  20.2446  20.3054  20.4322
    20.7399  21.2116  21.3554  21.7366  22.4419  23.3641  24.4484  25.2360
    27.7294  28.4071  29.1992  29.7744

          k = 0.4000-0.1540 0.0000 (  5078 PWs)   bands (ev):

   -53.8792 -53.8765 -42.0214 -41.9920 -41.9781 -41.9612 -41.9430 -41.9423
   -22.1983 -22.1951 -22.1704 -22.1696 -22.1614 -22.1575 -14.9599 -14.8986
   -14.8187 -14.8057 -14.7924 -14.7567 -14.7485 -14.6846 -14.6543 -14.6389
   -14.5720 -14.5305 -14.5248 -14.5075 -14.4907 -14.4419 -14.4027 -14.3926
    14.4435  14.5961  14.6543  14.7170  14.8473  14.8852  14.9308  15.0012
    15.2477  15.3212  15.5910  15.6067  16.1726  16.3808  16.8419  16.9829
    17.0522  17.2109  17.2304  17.2840  17.3865  17.4359  17.5021  17.6008
    17.8852  17.9729  18.0878  18.2404  18.3575  18.4937  18.7096  19.3094
    19.4865  19.5841  19.9192  19.9703  20.2022  20.3985  20.4417  20.5531
    21.0176  21.2394  21.8141  23.2277  24.5836  25.5562  26.4792  26.6261
    27.0971  27.2311  27.4571  27.7701

          k = 0.4000-0.1540 0.1808 (  5082 PWs)   bands (ev):

   -53.8800 -53.8765 -42.0188 -41.9903 -41.9764 -41.9632 -41.9463 -41.9437
   -22.2017 -22.1955 -22.1714 -22.1678 -22.1615 -22.1592 -14.9476 -14.9032
   -14.8493 -14.8247 -14.8034 -14.7393 -14.7133 -14.6869 -14.6735 -14.6099
   -14.5757 -14.5627 -14.5175 -14.4864 -14.4764 -14.4338 -14.4161 -14.4079
    14.5234  14.5955  14.6251  14.7131  14.7802  14.9040  15.0184  15.0612
    15.3446  15.4124  15.4919  15.5763  16.2659  16.5021  16.6152  16.9103
    17.0054  17.0211  17.1059  17.2572  17.2838  17.4039  17.6429  17.7184
    17.9262  18.1284  18.2383  18.4447  18.5623  18.5930  18.6380  19.2517
    19.4006  19.5677  19.7933  20.0467  20.1192  20.2309  20.3480  20.4873
    20.9294  21.1617  21.9214  23.3463  23.5868  25.2886  25.6506  26.4711
    26.8719  27.5487  27.8719  28.1152

          k = 0.4000-0.1540 0.3616 (  5080 PWs)   bands (ev):

   -53.8795 -53.8764 -42.0097 -41.9857 -41.9729 -41.9674 -41.9543 -41.9484
   -22.2012 -22.1908 -22.1698 -22.1673 -22.1655 -22.1598 -14.9307 -14.9176
   -14.8622 -14.8516 -14.8139 -14.7589 -14.7228 -14.6796 -14.6376 -14.5785
   -14.5706 -14.5531 -14.5173 -14.4677 -14.4645 -14.4546 -14.4274 -14.4112
    14.5312  14.5530  14.6995  14.7496  14.9241  15.0343  15.1389  15.1944
    15.2065  15.3475  15.5959  15.7028  16.0670  16.3383  16.5797  16.7812
    16.8983  16.9950  17.0964  17.2434  17.3984  17.5187  17.6485  17.7958
    18.1043  18.1714  18.3170  18.4126  18.6633  18.7198  19.0483  19.2216
    19.2961  19.6144  19.7015  19.7613  20.0321  20.1932  20.2548  20.4151
    20.5147  21.3511  22.1087  22.2312  23.5570  23.6257  24.9324  25.5096
    27.0202  27.8629  28.2585  28.8665

          k = 0.4000-0.1540 0.5424 (  5062 PWs)   bands (ev):

   -53.8771 -53.8745 -41.9964 -41.9847 -41.9718 -41.9646 -41.9624 -41.9554
   -22.1899 -22.1840 -22.1666 -22.1659 -22.1630 -22.1584 -14.9320 -14.9180
   -14.8561 -14.8511 -14.8240 -14.8105 -14.6837 -14.6473 -14.6229 -14.5986
   -14.5617 -14.5434 -14.4955 -14.4700 -14.4641 -14.4420 -14.4365 -14.4163
    14.5957  14.6278  14.7503  14.7976  14.8923  14.9886  15.0759  15.1972
    15.3579  15.5050  15.6286  15.7300  16.0181  16.3162  16.3824  16.6131
    16.8885  17.1520  17.1878  17.3268  17.4218  17.6813  17.7995  17.8829
    18.0319  18.1385  18.1611  18.2998  18.5902  18.6843  18.8321  18.9967
    19.4008  19.6897  19.9313  20.0620  20.1517  20.2288  20.3292  20.5523
    20.7347  21.1043  21.2607  22.0034  22.6507  23.5610  24.0163  24.7139
    27.6102  28.3490  28.6233  29.4061

          k = 0.4000 0.0385 0.0000 (  5079 PWs)   bands (ev):

   -53.8809 -53.8750 -42.0234 -41.9881 -41.9810 -41.9594 -41.9439 -41.9423
   -22.2007 -22.1949 -22.1760 -22.1695 -22.1565 -22.1560 -14.9610 -14.9033
   -14.8067 -14.8027 -14.7947 -14.7759 -14.7604 -14.6976 -14.6509 -14.6446
   -14.5563 -14.5276 -14.5242 -14.5074 -14.4537 -14.4399 -14.4164 -14.3967
    14.4095  14.6144  14.6237  14.6782  14.7341  14.9047  14.9350  14.9961
    15.1399  15.3138  15.5423  15.6118  16.3014  16.3069  16.7655  16.9671
    17.0939  17.2102  17.2553  17.3455  17.4542  17.5150  17.6164  17.6449
    17.7833  17.8292  18.0634  18.2900  18.3263  18.5027  18.8157  19.4022
    19.4821  19.7266  19.8404  20.3336  20.3732  20.4834  20.5220  20.7212
    20.8183  21.1621  21.2494  23.8612  24.3582  24.7347  26.4952  26.6385
    27.2581  27.4994  27.7342  27.8579

          k = 0.4000 0.0385 0.1808 (  5082 PWs)   bands (ev):

   -53.8793 -53.8772 -42.0195 -41.9870 -41.9802 -41.9616 -41.9456 -41.9448
   -22.2004 -22.1969 -22.1707 -22.1704 -22.1614 -22.1582 -14.9472 -14.9080
   -14.8573 -14.8294 -14.7956 -14.7617 -14.7060 -14.7001 -14.6748 -14.6128
   -14.5655 -14.5549 -14.5028 -14.4926 -14.4448 -14.4355 -14.4214 -14.4149
    14.5281  14.5595  14.6376  14.7105  14.7410  14.7538  14.9919  15.0793
    15.2550  15.4458  15.4832  15.5286  16.3470  16.4838  16.6792  16.8493
    16.9606  16.9961  17.1380  17.2031  17.3796  17.4792  17.5825  17.7354
    17.8698  18.2229  18.3540  18.4434  18.5507  18.5909  18.6604  19.2676
    19.4146  19.7822  19.9044  20.1372  20.1931  20.3611  20.4422  20.7135
    20.9260  20.9865  21.2872  23.4173  23.9994  24.7954  25.6397  26.0069
    27.1985  27.4261  27.9494  28.2256

          k = 0.4000 0.0385 0.3616 (  5063 PWs)   bands (ev):

   -53.8782 -53.8741 -42.0108 -41.9809 -41.9772 -41.9653 -41.9523 -41.9493
   -22.1992 -22.1855 -22.1670 -22.1652 -22.1592 -22.1542 -14.9236 -14.9091
   -14.8840 -14.8551 -14.8005 -14.7800 -14.7220 -14.6762 -14.6147 -14.5766
   -14.5758 -14.5430 -14.4943 -14.4787 -14.4638 -14.4429 -14.4233 -14.4152
    14.4951  14.5370  14.6847  14.7906  14.9015  14.9301  15.0794  15.2077
    15.2266  15.3125  15.4943  15.6679  16.0893  16.3237  16.6980  16.7489
    16.8305  16.9243  17.1932  17.2112  17.3685  17.5509  17.6333  17.8500
    18.0764  18.2394  18.3489  18.5244  18.7398  18.8238  18.9428  19.2858
    19.3094  19.7397  19.8191  19.9354  20.0291  20.1073  20.3992  20.5673
    20.8788  21.1088  21.3782  22.0753  23.9525  24.2928  24.3505  24.9665
    27.5419  27.9061  28.3158  28.6120

          k = 0.4000 0.0385 0.5424 (  5064 PWs)   bands (ev):

   -53.8765 -53.8758 -41.9980 -41.9850 -41.9721 -41.9644 -41.9604 -41.9558
   -22.1907 -22.1876 -22.1676 -22.1656 -22.1612 -22.1584 -14.9167 -14.9119
   -14.8835 -14.8732 -14.8268 -14.8134 -14.6829 -14.6460 -14.6021 -14.5975
   -14.5512 -14.5251 -14.4979 -14.4887 -14.4663 -14.4456 -14.4271 -14.4211
    14.5629  14.6018  14.7334  14.7784  14.9013  14.9723  15.1461  15.2095
    15.2768  15.3449  15.5925  15.6753  15.9956  16.3413  16.3930  16.5894
    16.9071  16.9751  17.2961  17.3250  17.4941  17.5688  17.8702  17.9308
    18.0269  18.1284  18.1901  18.4586  18.7083  18.8051  18.8454  19.0743
    19.4517  19.7974  19.9378  20.0015  20.1458  20.3424  20.4789  20.7136
    20.8347  21.0935  21.2774  21.7178  22.3988  22.7773  24.7531  25.0280
    27.3717  27.6606  28.9791  29.3512

     the Fermi energy is    20.5675 ev

!    total energy              =   -1509.83870560 Ry
     Harris-Foulkes estimate   =   -1509.83871487 Ry
     estimated scf accuracy    <       0.00001299 Ry

     The total energy is the sum of the following terms:

     one-electron contribution =    -223.79134176 Ry
     hartree contribution      =     203.97038602 Ry
     xc contribution           =    -151.92320500 Ry
     ewald contribution        =   -1337.49249581 Ry
     smearing contrib. (-TS)   =      -0.60204904 Ry

     convergence has been achieved in  10 iterations

     Forces acting on atoms (Ry/au):

     atom    1 type  1   force =     0.01902970    0.01098680    0.00000000
     atom    2 type  1   force =     0.01902970   -0.01098680    0.00000000
     atom    3 type  1   force =    -0.01902970   -0.01098680    0.00000000
     atom    4 type  1   force =    -0.01902970    0.01098680    0.00000000
     atom    5 type  1   force =     0.00000000   -0.02197360    0.00000000
     atom    6 type  1   force =     0.00000000    0.02197360    0.00000000
     atom    7 type  2   force =     0.00000000    0.00000000    0.00000000
     atom    8 type  2   force =     0.00000000    0.00000000    0.00000000

     Total force =     0.053824     Total SCF correction =     0.000000


     entering subroutine stress ...

          total   stress  (Ry/bohr**3)                   (kbar)     P= -472.58
  -0.00332063   0.00000000   0.00000000       -488.48      0.00      0.00
   0.00000000  -0.00332063   0.00000000          0.00   -488.48      0.00
   0.00000000   0.00000000  -0.00299628          0.00      0.00   -440.77


     BFGS Geometry Optimization

     number of scf cycles    =   1
     number of bfgs steps    =   0

     enthalpy new            =   -1509.8387055966 Ry

     new trust radius        =       0.5000000000 bohr
     new conv_thr            =       0.0001000000 Ry

     new unit-cell volume =    954.44192 a.u.^3 (   141.43370 Ang^3 )

CELL_PARAMETERS (alat= 12.01680127)
   0.927447526   0.000000000   0.000000000
  -0.463723763   0.803193119   0.000000000
   0.000000000   0.000000000   0.738369147

ATOMIC_POSITIONS (crystal)
Mg       0.665703329   0.832851665   0.250000000
Mg       0.832851665   0.167148335   0.750000000
Mg       0.334296671   0.167148335   0.750000000
Mg       0.167148335   0.832851665   0.250000000
Mg       0.167148335   0.334296671   0.250000000
Mg       0.832851665   0.665703329   0.750000000
Cd       0.666667000   0.333333000   0.250000000
Cd       0.333333000   0.666667000   0.750000000



     Writing output data file Prototype-La-hP8-Mg3Cd.save
     NEW-OLD atomic charge density approx. for the potential
     NEW k-points:
        k(    1) = (   0.0000000   0.0000000   0.0000000), wk =   0.0095238
        k(    2) = (   0.0000000   0.0000000   0.1934766), wk =   0.0190476
        k(    3) = (   0.0000000   0.0000000   0.3869532), wk =   0.0190476
        k(    4) = (   0.0000000   0.0000000   0.5804298), wk =   0.0190476
        k(    5) = (   0.0000000   0.2075051   0.0000000), wk =   0.0190476
        k(    6) = (   0.0000000   0.2075051   0.1934766), wk =   0.0380952
        k(    7) = (   0.0000000   0.2075051   0.3869532), wk =   0.0380952
        k(    8) = (   0.0000000   0.2075051   0.5804298), wk =   0.0380952
        k(    9) = (   0.0000000   0.4150102   0.0000000), wk =   0.0190476
        k(   10) = (   0.0000000   0.4150102   0.1934766), wk =   0.0380952
        k(   11) = (   0.0000000   0.4150102   0.3869532), wk =   0.0380952
        k(   12) = (   0.0000000   0.4150102   0.5804298), wk =   0.0380952
        k(   13) = (   0.0000000  -0.6225153   0.0000000), wk =   0.0095238
        k(   14) = (   0.0000000  -0.6225153   0.1934766), wk =   0.0190476
        k(   15) = (   0.0000000  -0.6225153   0.3869532), wk =   0.0190476
        k(   16) = (   0.0000000  -0.6225153   0.5804298), wk =   0.0190476
        k(   17) = (   0.2156456   0.1245031   0.0000000), wk =   0.0190476
        k(   18) = (   0.2156456   0.1245031   0.1934766), wk =   0.0380952
        k(   19) = (   0.2156456   0.1245031   0.3869532), wk =   0.0380952
        k(   20) = (   0.2156456   0.1245031   0.5804298), wk =   0.0380952
        k(   21) = (   0.2156456   0.3320082   0.0000000), wk =   0.0190476
        k(   22) = (   0.2156456   0.3320082   0.1934766), wk =   0.0380952
        k(   23) = (   0.2156456   0.3320082   0.3869532), wk =   0.0380952
        k(   24) = (   0.2156456   0.3320082   0.5804298), wk =   0.0380952
        k(   25) = (   0.2156456   0.5395133   0.0000000), wk =   0.0190476
        k(   26) = (   0.2156456   0.5395133   0.1934766), wk =   0.0380952
        k(   27) = (   0.2156456   0.5395133   0.3869532), wk =   0.0380952
        k(   28) = (   0.2156456   0.5395133   0.5804298), wk =   0.0380952
        k(   29) = (   0.2156456  -0.4980122   0.0000000), wk =   0.0190476
        k(   30) = (   0.2156456  -0.4980122   0.1934766), wk =   0.0380952
        k(   31) = (   0.2156456  -0.4980122   0.3869532), wk =   0.0380952
        k(   32) = (   0.2156456  -0.4980122   0.5804298), wk =   0.0380952
        k(   33) = (   0.2156456  -0.2905071   0.0000000), wk =   0.0190476
        k(   34) = (   0.2156456  -0.2905071   0.1934766), wk =   0.0380952
        k(   35) = (   0.2156456  -0.2905071   0.3869532), wk =   0.0380952
        k(   36) = (   0.2156456  -0.2905071   0.5804298), wk =   0.0380952
        k(   37) = (   0.2156456  -0.0830020   0.0000000), wk =   0.0190476
        k(   38) = (   0.2156456  -0.0830020   0.1934766), wk =   0.0380952
        k(   39) = (   0.2156456  -0.0830020   0.3869532), wk =   0.0380952
        k(   40) = (   0.2156456  -0.0830020   0.5804298), wk =   0.0380952
        k(   41) = (   0.4312912   0.2490061   0.0000000), wk =   0.0190476
        k(   42) = (   0.4312912   0.2490061   0.1934766), wk =   0.0380952
        k(   43) = (   0.4312912   0.2490061   0.3869532), wk =   0.0380952
        k(   44) = (   0.4312912   0.2490061   0.5804298), wk =   0.0380952
        k(   45) = (   0.4312912   0.4565112   0.0000000), wk =   0.0190476
        k(   46) = (   0.4312912   0.4565112   0.1934766), wk =   0.0380952
        k(   47) = (   0.4312912   0.4565112   0.3869532), wk =   0.0380952
        k(   48) = (   0.4312912   0.4565112   0.5804298), wk =   0.0380952
        k(   49) = (   0.4312912   0.6640163   0.0000000), wk =   0.0190476
        k(   50) = (   0.4312912   0.6640163   0.1934766), wk =   0.0380952
        k(   51) = (   0.4312912   0.6640163   0.3869532), wk =   0.0380952
        k(   52) = (   0.4312912   0.6640163   0.5804298), wk =   0.0380952
        k(   53) = (   0.4312912  -0.3735092   0.0000000), wk =   0.0190476
        k(   54) = (   0.4312912  -0.3735092   0.1934766), wk =   0.0380952
        k(   55) = (   0.4312912  -0.3735092   0.3869532), wk =   0.0380952
        k(   56) = (   0.4312912  -0.3735092   0.5804298), wk =   0.0380952
        k(   57) = (   0.4312912  -0.1660041   0.0000000), wk =   0.0190476
        k(   58) = (   0.4312912  -0.1660041   0.1934766), wk =   0.0380952
        k(   59) = (   0.4312912  -0.1660041   0.3869532), wk =   0.0380952
        k(   60) = (   0.4312912  -0.1660041   0.5804298), wk =   0.0380952
        k(   61) = (   0.4312912   0.0415010   0.0000000), wk =   0.0190476
        k(   62) = (   0.4312912   0.0415010   0.1934766), wk =   0.0380952
        k(   63) = (   0.4312912   0.0415010   0.3869532), wk =   0.0380952
        k(   64) = (   0.4312912   0.0415010   0.5804298), wk =   0.0380952

     total cpu time spent up to now is      591.2 secs

     Self-consistent Calculation

     iteration #  1     ecut=    40.00 Ry     beta=0.70
     CG style diagonalization
     c_bands:  5 eigenvalues not converged
     c_bands:  2 eigenvalues not converged
     c_bands:  4 eigenvalues not converged
     c_bands:  1 eigenvalues not converged
     c_bands:  1 eigenvalues not converged
[...]
    23.1084  23.4654  23.5800  26.5642  27.8479  28.3776  28.6663  28.8810
    29.1077  29.1800  30.0646  30.9231

          k = 0.4139 0.4381 0.1826 (  4703 PWs)   bands (ev):

   -51.9476 -51.9465 -39.9707 -39.9393 -39.9213 -39.8868 -39.8805 -39.8698
   -20.2723 -20.2712 -20.2633 -20.2623 -20.2591 -20.2524 -12.9787 -12.9255
   -12.8409 -12.8333 -12.8260 -12.7187 -12.6827 -12.6455 -12.6354 -12.6316
   -12.5794 -12.5657 -12.4580 -12.4170 -12.4046 -12.3599 -12.3345 -12.3145
    16.3375  16.4208  16.5756  16.5923  16.6537  16.8230  16.8744  17.0793
    17.1447  17.1721  17.3411  17.4653  17.8188  18.1556  18.4422  18.5474
    18.5769  18.7379  18.8757  18.9009  19.0368  19.3222  19.4799  19.5194
    19.6562  20.0016  20.1224  20.3410  20.3968  20.6301  20.6992  21.0275
    21.2322  21.5424  21.6995  22.0985  22.1640  22.2465  22.4237  22.6639
    23.1574  23.2740  23.7453  26.7323  26.9977  27.2760  28.0157  28.6218
    29.2576  30.3569  30.4264  31.0291

          k = 0.4139 0.4381 0.3652 (  4683 PWs)   bands (ev):

   -51.9452 -51.9441 -39.9571 -39.9331 -39.9159 -39.8938 -39.8900 -39.8755
   -20.2647 -20.2620 -20.2599 -20.2568 -20.2537 -20.2526 -12.9565 -12.9385
   -12.8685 -12.8530 -12.8384 -12.7576 -12.6546 -12.6533 -12.6158 -12.5987
   -12.5541 -12.5243 -12.4573 -12.3900 -12.3856 -12.3747 -12.3397 -12.3347
    16.3872  16.4902  16.5384  16.6325  16.7001  16.8008  16.9464  16.9736
    17.0423  17.2327  17.5095  17.5718  17.9827  18.2055  18.2711  18.3385
    18.4629  18.6573  18.8730  19.0272  19.2702  19.3523  19.4814  19.7715
    19.8092  19.8389  19.9256  20.0844  20.3959  20.7242  20.8394  21.1953
    21.4618  21.5537  21.6648  21.8321  22.1000  22.3428  22.3671  22.6291
    22.7231  23.4917  23.9434  25.2733  25.6120  26.8516  27.1694  28.6007
    30.1908  30.3189  31.4552  31.5202

          k = 0.4139 0.4381 0.5478 (  4672 PWs)   bands (ev):

   -51.9442 -51.9429 -39.9384 -39.9275 -39.9139 -39.9094 -39.8902 -39.8846
   -20.2631 -20.2598 -20.2581 -20.2565 -20.2489 -20.2475 -12.9591 -12.9419
   -12.8737 -12.8503 -12.8365 -12.8109 -12.6469 -12.6423 -12.5953 -12.5883
   -12.5186 -12.4927 -12.4476 -12.4259 -12.3821 -12.3621 -12.3479 -12.3442
    16.4330  16.5482  16.5827  16.6275  16.6673  16.7481  16.8182  16.8831
    17.2109  17.3799  17.6803  17.7523  18.0139  18.1760  18.2308  18.3021
    18.4071  18.4808  19.0519  19.1873  19.2819  19.3296  19.4896  19.5814
    19.7271  19.7695  20.0316  20.0637  20.3733  20.4318  20.4469  20.9449
    21.5789  21.8408  22.1577  22.2809  22.3113  22.5189  22.5796  22.6309
    22.9925  23.4648  23.7847  23.9658  24.3554  25.2513  27.8155  28.5916
    30.2299  30.8541  32.1553  32.4287

          k = 0.4139 0.6372 0.0000 (  4711 PWs)   bands (ev):

   -51.9486 -51.9477 -39.9742 -39.9382 -39.9311 -39.8802 -39.8743 -39.8718
   -20.2709 -20.2680 -20.2666 -20.2658 -20.2642 -20.2582 -12.9915 -12.8762
   -12.8013 -12.7951 -12.7944 -12.7688 -12.7336 -12.7141 -12.6557 -12.6523
   -12.5249 -12.5120 -12.4488 -12.4432 -12.4187 -12.3927 -12.3719 -12.2860
    16.2666  16.6040  16.6533  16.6938  16.7529  16.9049  16.9371  16.9992
    17.0840  17.2338  17.3384  17.4600  17.7698  18.0631  18.2440  18.3182
    18.6082  18.9283  18.9471  18.9885  19.1128  19.2125  19.2616  19.3367
    19.4533  19.8856  20.0720  20.3514  20.4139  20.5523  20.6217  21.2078
    21.4015  21.6257  21.9474  22.2506  22.3428  22.4560  22.6222  22.6335
    22.7127  22.7794  23.4403  27.1268  27.4184  28.3499  28.6329  28.9760
    29.0347  29.3724  29.9943  30.0084

          k = 0.4139 0.6372 0.1826 (  4709 PWs)   bands (ev):

   -51.9482 -51.9474 -39.9694 -39.9361 -39.9291 -39.8825 -39.8782 -39.8741
   -20.2740 -20.2725 -20.2650 -20.2618 -20.2603 -20.2559 -12.9736 -12.8878
   -12.8612 -12.8353 -12.7969 -12.7576 -12.6776 -12.6615 -12.6590 -12.6351
   -12.5648 -12.5513 -12.4269 -12.4134 -12.3974 -12.3839 -12.3721 -12.3163
    16.3497  16.6383  16.6685  16.6911  16.7313  16.8620  16.9269  16.9951
    17.1231  17.1414  17.3286  17.3600  17.9871  18.1132  18.3901  18.4467
    18.5520  18.6442  18.7572  18.9642  19.1520  19.2274  19.3698  19.4672
    19.5101  20.1162  20.1684  20.2744  20.3602  20.5266  20.5399  21.2600
    21.3626  21.6187  21.9422  22.0721  22.2067  22.3333  22.4090  22.6783
    22.9065  22.9965  23.2235  27.1517  27.3097  27.5724  27.6473  28.0209
    28.8696  30.4342  30.5878  31.1969

          k = 0.4139 0.6372 0.3652 (  4684 PWs)   bands (ev):

   -51.9452 -51.9441 -39.9549 -39.9296 -39.9237 -39.8928 -39.8851 -39.8791
   -20.2644 -20.2613 -20.2612 -20.2592 -20.2531 -20.2506 -12.9284 -12.9209
   -12.8927 -12.8524 -12.8259 -12.7933 -12.6524 -12.6442 -12.6242 -12.5941
   -12.5544 -12.5220 -12.4414 -12.3960 -12.3838 -12.3738 -12.3516 -12.3468
    16.4692  16.6061  16.6563  16.7517  16.7646  16.8239  16.8875  16.9529
    17.0060  17.1502  17.5301  17.6138  18.0088  18.1090  18.2041  18.4993
    18.5669  18.7063  18.8289  18.9902  19.1127  19.1433  19.5260  19.6317
    19.7046  19.8226  19.8384  19.9788  20.3591  20.8399  20.8787  21.3531
    21.4418  21.6577  21.6766  22.0086  22.0890  22.1634  22.5542  22.6728
    22.8343  23.1097  23.2412  25.4596  25.8829  26.2381  27.8534  28.2610
    29.9335  31.1500  31.4689  31.8280

          k = 0.4139 0.6372 0.5478 (  4668 PWs)   bands (ev):

   -51.9436 -51.9426 -39.9360 -39.9238 -39.9202 -39.9110 -39.8878 -39.8848
   -20.2608 -20.2574 -20.2559 -20.2535 -20.2509 -20.2486 -12.9289 -12.8999
   -12.8893 -12.8696 -12.8395 -12.8328 -12.6392 -12.6373 -12.6034 -12.5787
   -12.5003 -12.4840 -12.4585 -12.4542 -12.3796 -12.3717 -12.3483 -12.3461
    16.5153  16.6033  16.6206  16.6681  16.7557  16.7866  16.8474  16.9276
    17.1726  17.3327  17.7702  17.8783  17.9810  18.0623  18.1565  18.4100
    18.6131  18.6504  18.8869  18.9441  19.1489  19.2394  19.3119  19.3754
    19.6836  19.7143  20.0028  20.0191  20.4030  20.4804  20.5202  20.9682
    21.8174  22.0116  22.1185  22.1900  22.4400  22.5215  22.6565  22.8587
    22.9932  23.1803  23.3587  23.9389  24.2987  24.5928  28.6810  29.0987
    30.2300  30.6678  31.3393  32.2122

          k = 0.4139-0.3584 0.0000 (  4702 PWs)   bands (ev):

   -51.9485 -51.9454 -39.9771 -39.9421 -39.9178 -39.8896 -39.8757 -39.8656
   -20.2729 -20.2672 -20.2649 -20.2634 -20.2577 -20.2536 -12.9982 -12.9265
   -12.8560 -12.8066 -12.7834 -12.7428 -12.7146 -12.6606 -12.6479 -12.5967
   -12.5805 -12.5348 -12.4578 -12.4527 -12.4334 -12.3506 -12.3157 -12.2888
    16.2412  16.3273  16.4595  16.5413  16.6598  16.6826  16.7521  17.0472
    17.1242  17.1328  17.4492  17.5055  17.6500  18.3161  18.4727  18.6070
    18.7123  18.9249  18.9441  18.9975  19.1995  19.2227  19.3405  19.4549
    19.5743  19.8467  20.1919  20.3383  20.5057  20.5263  20.7488  20.9048
    21.2422  21.4748  21.7398  22.0048  22.1613  22.4632  22.6662  22.7263
    23.3095  23.4927  24.1159  26.1272  27.8933  28.2051  28.7972  29.0115
    29.2547  29.5261  30.1006  30.5610

          k = 0.4139-0.3584 0.1826 (  4696 PWs)   bands (ev):

   -51.9469 -51.9457 -39.9722 -39.9395 -39.9155 -39.8917 -39.8800 -39.8684
   -20.2703 -20.2669 -20.2624 -20.2594 -20.2574 -20.2542 -12.9812 -12.9443
   -12.8627 -12.8318 -12.8181 -12.7073 -12.6839 -12.6530 -12.6272 -12.6069
   -12.5868 -12.5633 -12.4700 -12.4174 -12.4010 -12.3429 -12.3184 -12.3138
    16.2685  16.3392  16.4886  16.5090  16.6127  16.7566  16.8118  17.0476
    17.1597  17.2053  17.2714  17.5198  17.8036  18.2052  18.3726  18.6660
    18.7180  18.7633  18.9183  18.9788  18.9894  19.2677  19.5478  19.6553
    19.7385  19.9490  20.1432  20.3416  20.4231  20.6726  20.8082  20.9415
    21.1705  21.4895  21.6125  22.0116  22.2617  22.2816  22.4544  22.6658
    23.1894  23.4871  24.2480  26.2814  26.6516  27.3412  28.3588  29.0377
    29.6784  29.9663  30.3919  30.8659

          k = 0.4139-0.3584 0.3652 (  4695 PWs)   bands (ev):

   -51.9465 -51.9459 -39.9595 -39.9339 -39.9111 -39.8969 -39.8917 -39.8745
   -20.2690 -20.2657 -20.2643 -20.2593 -20.2576 -20.2538 -12.9766 -12.9524
   -12.8694 -12.8608 -12.8340 -12.7438 -12.6725 -12.6610 -12.6116 -12.5853
   -12.5471 -12.5238 -12.4696 -12.3930 -12.3838 -12.3747 -12.3362 -12.3272
    16.3111  16.3569  16.4890  16.5356  16.6787  16.8078  16.9527  16.9742
    16.9976  17.2381  17.4833  17.5777  17.8618  18.1800  18.1971  18.4384
    18.5816  18.6698  18.8804  19.1148  19.2109  19.3212  19.6613  19.7386
    19.9131  19.9604  20.1353  20.1549  20.4351  20.6575  20.7621  21.1586
    21.4135  21.5537  21.6690  21.7799  22.1190  22.2788  22.4811  22.6024
    22.7132  23.7236  24.4737  25.0138  25.6388  26.6146  27.3167  28.5909
    29.8583  30.5567  31.0414  31.4715

          k = 0.4139-0.3584 0.5478 (  4679 PWs)   bands (ev):

   -51.9450 -51.9437 -39.9414 -39.9289 -39.9120 -39.9066 -39.8926 -39.8838
   -20.2655 -20.2644 -20.2602 -20.2592 -20.2487 -20.2479 -12.9793 -12.9623
   -12.8657 -12.8549 -12.8334 -12.8029 -12.6547 -12.6375 -12.5978 -12.5812
   -12.5317 -12.4923 -12.4410 -12.4114 -12.3887 -12.3609 -12.3456 -12.3385
    16.3681  16.4562  16.5223  16.5593  16.6330  16.7360  16.8012  16.8863
    17.2022  17.3807  17.5920  17.6736  17.9102  18.1014  18.1494  18.3266
    18.4928  18.6163  19.0137  19.2843  19.3147  19.4431  19.5953  19.7557
    19.8608  19.9158  20.0847  20.1969  20.2081  20.3753  20.4960  20.9469
    21.4463  21.7505  22.1926  22.2507  22.3410  22.4303  22.5536  22.6423
    23.0291  23.5539  23.6880  24.0430  24.9139  25.8160  27.1170  27.8800
    30.4501  31.0866  31.9739  32.5356

          k = 0.4139-0.1593 0.0000 (  4691 PWs)   bands (ev):

   -51.9467 -51.9450 -39.9825 -39.9361 -39.9153 -39.8947 -39.8729 -39.8649
   -20.2678 -20.2669 -20.2655 -20.2599 -20.2572 -20.2486 -13.0001 -12.9659
   -12.8635 -12.8040 -12.7834 -12.7716 -12.7377 -12.6915 -12.6376 -12.6157
   -12.5277 -12.4762 -12.4494 -12.4319 -12.4217 -12.3399 -12.3030 -12.2885
    16.0847  16.3001  16.3209  16.3922  16.5046  16.5810  16.6411  16.7063
    16.9688  17.0790  17.3482  17.4612  17.9568  18.1145  18.6342  18.8569
    18.8869  19.0992  19.1223  19.1619  19.2116  19.2453  19.3821  19.5462
    19.7136  19.9022  20.0260  20.1775  20.2885  20.4640  20.6446  21.3523
    21.6083  21.7026  22.0383  22.2185  22.3392  22.5137  22.6548  22.7731
    23.3643  23.5386  24.3601  25.9064  26.9548  28.2723  28.8643  29.2256
    29.7555  29.7760  30.0264  30.3311

          k = 0.4139-0.1593 0.1826 (  4695 PWs)   bands (ev):

   -51.9477 -51.9450 -39.9784 -39.9343 -39.9130 -39.8980 -39.8763 -39.8674
   -20.2724 -20.2647 -20.2642 -20.2622 -20.2571 -20.2525 -12.9908 -12.9721
   -12.8809 -12.8401 -12.8241 -12.7309 -12.6908 -12.6783 -12.6686 -12.5811
   -12.5321 -12.5125 -12.4521 -12.4100 -12.3916 -12.3372 -12.3165 -12.3093
    16.1396  16.2553  16.3275  16.3965  16.5112  16.5572  16.6834  16.7717
    17.0960  17.2114  17.2866  17.3172  18.0189  18.2351  18.3750  18.7240
    18.7919  18.9027  18.9750  19.0885  19.1187  19.2349  19.5934  19.6537
    19.8801  20.0399  20.1983  20.3547  20.5119  20.5875  20.6377  21.2818
    21.5220  21.7183  21.9307  22.2240  22.3102  22.3594  22.5319  22.7094
    23.2140  23.5407  24.4575  25.9561  26.0198  27.7246  28.3380  29.0487
    29.5229  30.0978  30.4906  30.7167

          k = 0.4139-0.1593 0.3652 (  4689 PWs)   bands (ev):

   -51.9472 -51.9440 -39.9657 -39.9292 -39.9099 -39.9016 -39.8864 -39.8739
   -20.2699 -20.2658 -20.2631 -20.2611 -20.2590 -20.2456 -12.9843 -12.9732
   -12.8989 -12.8702 -12.8439 -12.7593 -12.7152 -12.6436 -12.5981 -12.5344
   -12.5220 -12.5017 -12.4634 -12.3901 -12.3767 -12.3697 -12.3388 -12.3165
    16.1630  16.1938  16.3493  16.4537  16.6394  16.7195  16.8629  16.8931
    16.9299  17.1079  17.3421  17.4485  17.7401  18.0762  18.2924  18.5138
    18.6566  18.7996  18.9184  19.1274  19.2850  19.4233  19.5762  19.7466
    20.0374  20.1511  20.2653  20.3982  20.6054  20.7649  21.0742  21.3674
    21.4073  21.7927  21.8445  21.9236  22.1531  22.3687  22.5413  22.6381
    22.7485  23.7883  24.4896  24.6890  25.9726  26.2580  27.4428  28.1222
    29.7284  30.6640  30.8363  31.4141

          k = 0.4139-0.1593 0.5478 (  4679 PWs)   bands (ev):

   -51.9447 -51.9442 -39.9478 -39.9310 -39.9103 -39.9003 -39.8928 -39.8831
   -20.2678 -20.2663 -20.2582 -20.2563 -20.2521 -20.2490 -12.9890 -12.9766
   -12.8924 -12.8805 -12.8519 -12.8189 -12.6683 -12.6094 -12.5808 -12.5497
   -12.5123 -12.4834 -12.4272 -12.4048 -12.3891 -12.3616 -12.3469 -12.3293
    16.2402  16.2673  16.4040  16.4722  16.5982  16.7297  16.7642  16.9092
    17.0648  17.2039  17.3495  17.4172  17.7152  18.0140  18.0994  18.3022
    18.6751  18.9715  18.9932  19.1778  19.3095  19.5727  19.7568  19.8440
    19.9778  20.0941  20.1612  20.2725  20.5781  20.7330  20.8532  21.1135
    21.5578  21.8589  22.1564  22.2591  22.3969  22.4474  22.6127  22.7523
    23.0236  23.3577  23.6797  24.3007  25.1391  26.0333  26.6409  27.3128
    30.3643  31.0797  31.4547  32.1745

          k = 0.4139 0.0398 0.0000 (  4699 PWs)   bands (ev):

   -51.9486 -51.9452 -39.9846 -39.9314 -39.9210 -39.8941 -39.8707 -39.8662
   -20.2724 -20.2714 -20.2661 -20.2644 -20.2571 -20.2483 -13.0036 -12.9743
   -12.8440 -12.8011 -12.7843 -12.7834 -12.7806 -12.7045 -12.6396 -12.6153
   -12.5123 -12.4541 -12.4459 -12.4353 -12.3766 -12.3563 -12.3269 -12.2896
    16.1129  16.2468  16.2795  16.3138  16.4315  16.6112  16.6312  16.6758
    16.8448  17.0543  17.2962  17.4752  18.0336  18.0614  18.6490  18.7626
    18.9097  19.1617  19.1689  19.1990  19.2400  19.4043  19.5031  19.5043
    19.7192  19.7211  19.9145  20.2305  20.3004  20.4543  20.7744  21.4507
    21.5945  21.8773  22.0356  22.5155  22.5588  22.6870  22.7310  23.0280
    23.1308  23.5424  23.5831  26.5426  26.7165  27.4663  28.9004  29.0885
    29.7781  30.0767  30.4168  30.5461

          k = 0.4139 0.0398 0.1826 (  4701 PWs)   bands (ev):

   -51.9486 -51.9457 -39.9803 -39.9289 -39.9199 -39.8966 -39.8741 -39.8688
   -20.2748 -20.2673 -20.2656 -20.2648 -20.2600 -20.2511 -12.9931 -12.9741
   -12.8848 -12.8401 -12.8227 -12.7727 -12.6895 -12.6798 -12.6732 -12.5829
   -12.5207 -12.4941 -12.4292 -12.4122 -12.3676 -12.3488 -12.3282 -12.3185
    16.1900  16.2247  16.2980  16.3496  16.4219  16.4549  16.6873  16.7350
    16.9793  17.2330  17.2817  17.2959  18.0663  18.2161  18.4621  18.6753
    18.8009  18.8305  18.9105  19.0960  19.2168  19.3436  19.4961  19.6744
    19.8114  20.1535  20.2974  20.4333  20.4905  20.5710  20.6628  21.3038
    21.5386  21.9266  22.1178  22.3026  22.3576  22.5505  22.6832  23.0174
    23.2555  23.2862  23.6907  25.7793  26.6674  27.5169  28.0778  28.4924
    29.8534  30.0254  30.5336  30.8186

          k = 0.4139 0.0398 0.3652 (  4683 PWs)   bands (ev):

   -51.9463 -51.9435 -39.9672 -39.9230 -39.9181 -39.9000 -39.8824 -39.8749
   -20.2654 -20.2632 -20.2612 -20.2610 -20.2575 -20.2474 -12.9758 -12.9699
   -12.9196 -12.8787 -12.8255 -12.7945 -12.7164 -12.6413 -12.5832 -12.5270
   -12.5229 -12.4994 -12.4276 -12.4034 -12.3762 -12.3588 -12.3391 -12.3233
    16.1272  16.1806  16.3483  16.4555  16.5589  16.6781  16.7944  16.8512
    16.9726  17.0724  17.2125  17.4220  17.7696  18.0590  18.4170  18.4822
    18.5722  18.7054  19.0302  19.0929  19.2373  19.4913  19.5716  19.7695
    20.0068  20.2177  20.3114  20.5465  20.7574  20.8532  20.9696  21.4080
    21.4374  21.8847  21.9776  22.0910  22.2139  22.3634  22.6046  22.8577
    23.1920  23.4885  23.7838  24.4024  26.3643  26.7420  26.9895  27.6603
    30.2404  30.5448  31.0578  31.2363

          k = 0.4139 0.0398 0.5478 (  4685 PWs)   bands (ev):

   -51.9456 -51.9447 -39.9498 -39.9316 -39.9102 -39.9003 -39.8908 -39.8836
   -20.2663 -20.2651 -20.2609 -20.2591 -20.2560 -20.2524 -12.9733 -12.9664
   -12.9269 -12.9085 -12.8490 -12.8252 -12.6705 -12.6135 -12.5581 -12.5513
   -12.5057 -12.4636 -12.4196 -12.4104 -12.3992 -12.3666 -12.3413 -12.3358
    16.1992  16.2456  16.3944  16.4387  16.6087  16.7080  16.8446  16.9281
    16.9412  17.0170  17.2685  17.4013  17.6946  18.0482  18.1053  18.2858
    18.6782  18.7541  19.1114  19.1724  19.3944  19.4852  19.8169  19.8479
    20.0129  20.1215  20.1777  20.4643  20.7257  20.8448  20.8867  21.2000
    21.6215  21.9552  22.1682  22.2089  22.4090  22.5741  22.7476  22.9999
    23.1338  23.4732  23.5735  24.0801  24.7327  25.1507  27.3902  27.6810
    30.1616  30.4338  31.7272  32.0236

     the Fermi energy is    22.7955 ev

!    total energy              =   -1509.82441826 Ry
     Harris-Foulkes estimate   =   -1509.82441866 Ry
     estimated scf accuracy    <       0.00000046 Ry

     The total energy is the sum of the following terms:

     one-electron contribution =    -171.54093189 Ry
     hartree contribution      =     188.25974766 Ry
     xc contribution           =    -152.63610446 Ry
     ewald contribution        =   -1373.34851789 Ry
     smearing contrib. (-TS)   =      -0.55861167 Ry

     convergence has been achieved in  12 iterations

     Forces acting on atoms (Ry/au):

     atom    1 type  1   force =     0.00714526    0.00412532    0.00000000
     atom    2 type  1   force =     0.00714526   -0.00412532    0.00000000
     atom    3 type  1   force =    -0.00714526   -0.00412532    0.00000000
     atom    4 type  1   force =    -0.00714526    0.00412532    0.00000000
     atom    5 type  1   force =     0.00000000   -0.00825063    0.00000000
     atom    6 type  1   force =     0.00000000    0.00825063    0.00000000
     atom    7 type  2   force =     0.00000000    0.00000000    0.00000000
     atom    8 type  2   force =     0.00000000    0.00000000    0.00000000

     Total force =     0.020210     Total SCF correction =     0.000000


     entering subroutine stress ...

          total   stress  (Ry/bohr**3)                   (kbar)     P= -360.57
  -0.00250687   0.00000000   0.00000000       -368.77      0.00      0.00
   0.00000000  -0.00250687   0.00000000          0.00   -368.77      0.00
   0.00000000   0.00000000  -0.00233949          0.00      0.00   -344.15


     Writing output data file Prototype-La-hP8-Mg3Cd.save
 
     init_run     :     12.96s CPU     16.51s WALL (       2 calls)
     electrons    :   2012.35s CPU   2398.65s WALL (       5 calls)
     update_pot   :      2.25s CPU      2.27s WALL (       3 calls)
     forces       :      9.56s CPU     10.16s WALL (       5 calls)
     stress       :     28.06s CPU     28.78s WALL (       5 calls)

     Called by init_run:
     wfcinit      :     12.05s CPU     15.10s WALL (       2 calls)
     potinit      :      0.41s CPU      0.42s WALL (       2 calls)

     Called by electrons:
     c_bands      :   1935.84s CPU   2288.82s WALL (      42 calls)
     sum_band     :     76.08s CPU    101.52s WALL (      42 calls)
     v_of_rho     :      0.08s CPU      0.10s WALL (      47 calls)
     mix_rho      :      0.09s CPU      0.12s WALL (      42 calls)

     Called by c_bands:
     init_us_2    :      4.58s CPU      5.35s WALL (    6144 calls)
     ccgdiagg     :   1717.05s CPU   2006.35s WALL (    2950 calls)
     wfcrot       :    226.13s CPU    289.81s WALL (    3014 calls)

     Called by *cgdiagg:
     h_psi        :   1329.10s CPU   1636.91s WALL ( 1263003 calls)
     cdiaghg      :      7.34s CPU      7.76s WALL (    3014 calls)

     Called by h_psi:
     add_vuspsi   :    107.53s CPU    154.57s WALL ( 1263003 calls)

     General routines
     calbec       :    422.02s CPU    439.87s WALL ( 2523632 calls)
     fft          :      0.14s CPU      0.16s WALL (     211 calls)
     fftw         :   1022.56s CPU   1224.31s WALL ( 3252122 calls)
     davcio       :      3.05s CPU      6.81s WALL (    8832 calls)
 
     Parallel routines
     fft_scatter  :    445.83s CPU    524.21s WALL ( 3252333 calls)
 
     PWSCF        : 34m25.88s CPU    40m59.91s WALL

 
   This run was terminated on:  21:56:17  22Mar2018            

=------------------------------------------------------------------------------=
   JOB DONE.
=------------------------------------------------------------------------------=
