
     Program PWSCF v.5.0.2 starts on 23Mar2018 at  2:18:20 

     This program is part of the open-source Quantum ESPRESSO suite
     for quantum simulation of materials; please cite
         "P. Giannozzi et al., J. Phys.:Condens. Matter 21 395502 (2009);
          URL http://www.quantum-espresso.org", 
     in publications or presentations arising from this work. More details at
     http://www.quantum-espresso.org/quote.php

     Parallel version (MPI), running on     4 processors
     R & G space division:  proc/nbgrp/npool/nimage =       4

     Current dimensions of program PWSCF are:
     Max number of different atomic species (ntypx) = 10
     Max number of k-points (npk) =  40000
     Max angular momentum in pseudopotentials (lmaxx) =  3
     Waiting for input...
     Reading input from standard input

     Subspace diagonalization in iterative solution of the eigenvalue problem:
     a serial algorithm will be used

 
     Parallelization info
     --------------------
     sticks:   dense  smooth     PW     G-vecs:    dense   smooth      PW
     Min         207     207     61                 7381     7381    1191
     Max         208     208     62                 7386     7386    1192
     Sum         829     829    247                29529    29529    4767
 


     bravais-lattice index     =            0
     lattice parameter (alat)  =       7.0151  a.u.
     unit-cell volume          =     862.2778 (a.u.)^3
     number of atoms/cell      =           12
     number of atomic types    =            2
     number of electrons       =       260.00
     number of Kohn-Sham states=          156
     kinetic-energy cutoff     =      40.0000  Ry
     charge density cutoff     =     160.0000  Ry
     convergence threshold     =      1.0E-04
     mixing beta               =       0.7000
     number of iterations used =            8  plain     mixing
     Exchange-correlation      = SLA-PZ-NOGX-NOGC ( 1 1 0 0 0)
     EXX-fraction              =        0.00
     nstep                     =           50


     celldm(1)=   7.015105  celldm(2)=   0.000000  celldm(3)=   0.000000
     celldm(4)=   0.000000  celldm(5)=   0.000000  celldm(6)=   0.000000

     crystal axes: (cart. coord. in units of alat)
               a(1) = (   1.000000   0.000000   0.000000 )  
               a(2) = (   0.000000   1.315963   0.000000 )  
               a(3) = (   0.000000   0.000000   1.898020 )  

     reciprocal axes: (cart. coord. in units 2 pi/alat)
               b(1) = (  1.000000  0.000000  0.000000 )  
               b(2) = (  0.000000  0.759900  0.000000 )  
               b(3) = (  0.000000  0.000000  0.526865 )  


     PseudoPot. # 1 for Dy read from file:
     /home/cwx6513/pp.La/Dy.UPF
     MD5 check sum: 9597327bec62616a94a14d07f3fd9936
     Pseudo is Norm-conserving, Zval = 20.0
     Generated in analytical, separable form
     Using radial grid of 1265 points,  6 beta functions with: 
                l(1) =   0
                l(2) =   0
                l(3) =   1
                l(4) =   1
                l(5) =   2
                l(6) =   3

     PseudoPot. # 2 for Lu read from file:
     /home/cwx6513/pp.La/La.UPF
     MD5 check sum: 4fc038260c66a0bf25fb4835376efb80
     Pseudo is Norm-conserving, Zval = 25.0
     Generated in analytical, separable form
     Using radial grid of 1271 points,  6 beta functions with: 
                l(1) =   0
                l(2) =   0
                l(3) =   1
                l(4) =   1
                l(5) =   2
                l(6) =   3

     atomic species   valence    mass     pseudopotential
        Co            20.00    58.93320     Dy( 1.00)
        Si            25.00    28.08550     Lu( 1.00)

      8 Sym. Ops., with inversion, found ( 6 have fractional translation)



   Cartesian axes

     site n.     atom                  positions (alat units)
         1           Co  tau(   1) = (   0.7500000   1.0875135   0.8270358  )
         2           Co  tau(   2) = (   0.2500000   0.2284499   1.0709846  )
         3           Co  tau(   3) = (   0.7500000   0.4295318   0.1219744  )
         4           Co  tau(   4) = (   0.2500000   0.8864316   1.7760460  )
         5           Co  tau(   5) = (   0.2500000   0.7067855   0.5358966  )
         6           Co  tau(   6) = (   0.7500000   0.6091779   1.3621238  )
         7           Co  tau(   7) = (   0.2500000   0.0488038   0.4131136  )
         8           Co  tau(   8) = (   0.7500000   1.2671596   1.4849068  )
         9           Si  tau(   9) = (   0.2500000   0.2669484   1.6960710  )
        10           Si  tau(  10) = (   0.7500000   1.0490149   0.2019494  )
        11           Si  tau(  11) = (   0.2500000   0.9249301   1.1509596  )
        12           Si  tau(  12) = (   0.7500000   0.3910333   0.7470608  )

     number of k points=    12  gaussian smearing, width (Ry)=  0.1000
                       cart. coord. in units 2pi/alat
        k(    1) = (   0.0000000   0.0000000   0.0000000), wk =   0.0833333
        k(    2) = (   0.0000000   0.0000000   0.1317162), wk =   0.1666667
        k(    3) = (   0.0000000   0.0000000  -0.2634324), wk =   0.0833333
        k(    4) = (   0.0000000   0.2532999   0.0000000), wk =   0.1666667
        k(    5) = (   0.0000000   0.2532999   0.1317162), wk =   0.3333333
        k(    6) = (   0.0000000   0.2532999  -0.2634324), wk =   0.1666667
        k(    7) = (  -0.5000000   0.0000000   0.0000000), wk =   0.0833333
        k(    8) = (  -0.5000000   0.0000000   0.1317162), wk =   0.1666667
        k(    9) = (  -0.5000000   0.0000000  -0.2634324), wk =   0.0833333
        k(   10) = (  -0.5000000   0.2532999   0.0000000), wk =   0.1666667
        k(   11) = (  -0.5000000   0.2532999   0.1317162), wk =   0.3333333
        k(   12) = (  -0.5000000   0.2532999  -0.2634324), wk =   0.1666667

     Dense  grid:    29529 G-vectors     FFT dimensions: (  30,  40,  54)

     Largest allocated arrays     est. size (Mb)     dimensions
        Kohn-Sham Wavefunctions         2.19 Mb     (    922,  156)
        NL pseudopotentials             3.38 Mb     (    922,  240)
        Each V/rho on FFT grid          0.26 Mb     (  16800)
        Each G-vector array             0.06 Mb     (   7386)
        G-vector shells                 0.06 Mb     (   7386)
     Largest temporary arrays     est. size (Mb)     dimensions
        Each subspace H/S matrix        0.37 Mb     ( 156, 156)
        Each <psi_i|beta_j> matrix      0.57 Mb     (    240,  156)
        Arrays for rho mixing           2.05 Mb     (  16800,   8)

     Initial potential from superposition of free atoms

     Starting from uniform charge
     Starting wfc are    0 randomized atomic wfcs

     total cpu time spent up to now is        2.9 secs

     Self-consistent Calculation

     iteration #  1     ecut=    40.00 Ry     beta=0.70
     CG style diagonalization
     c_bands:  5 eigenvalues not converged
     c_bands:  5 eigenvalues not converged
     c_bands:  5 eigenvalues not converged
     c_bands:  3 eigenvalues not converged
     c_bands:  5 eigenvalues not converged
     c_bands:  3 eigenvalues not converged
     ethr =  1.00E-02,  avg # of iterations = 15.3

     total cpu time spent up to now is       58.8 secs

     total energy              =   -2960.48951097 Ry
     Harris-Foulkes estimate   =   -4562.96045031 Ry
     estimated scf accuracy    <    1943.48750600 Ry

     iteration #  2     ecut=    40.00 Ry     beta=0.70
     CG style diagonalization
     ethr =  1.00E-02,  avg # of iterations = 15.6

     total cpu time spent up to now is      119.9 secs

     total energy              =   -3354.95014371 Ry
     Harris-Foulkes estimate   =   -4631.72218559 Ry
     estimated scf accuracy    <    2436.76929260 Ry

     iteration #  3     ecut=    40.00 Ry     beta=0.70
     CG style diagonalization
     c_bands:  1 eigenvalues not converged
     c_bands:  1 eigenvalues not converged
     ethr =  1.00E-02,  avg # of iterations = 11.6

     total cpu time spent up to now is      166.2 secs

     total energy              =   -3832.48634320 Ry
     Harris-Foulkes estimate   =   -3920.21090564 Ry
     estimated scf accuracy    <     144.04174643 Ry

     iteration #  4     ecut=    40.00 Ry     beta=0.70
     CG style diagonalization
     ethr =  1.00E-02,  avg # of iterations =  5.5

     total cpu time spent up to now is      187.1 secs

     total energy              =   -3872.85711030 Ry
     Harris-Foulkes estimate   =   -3883.81630832 Ry
     estimated scf accuracy    <      23.05089848 Ry

     iteration #  5     ecut=    40.00 Ry     beta=0.70
     CG style diagonalization
     ethr =  8.87E-03,  avg # of iterations =  3.5

     total cpu time spent up to now is      199.6 secs

     total energy              =   -3877.00589303 Ry
     Harris-Foulkes estimate   =   -3878.20262401 Ry
     estimated scf accuracy    <       2.60280737 Ry

     iteration #  6     ecut=    40.00 Ry     beta=0.70
     CG style diagonalization
     ethr =  1.00E-03,  avg # of iterations =  3.9

     total cpu time spent up to now is      213.8 secs

     total energy              =   -3877.39640426 Ry
     Harris-Foulkes estimate   =   -3877.69886240 Ry
     estimated scf accuracy    <       0.53775463 Ry

     iteration #  7     ecut=    40.00 Ry     beta=0.70
     CG style diagonalization
     c_bands:  1 eigenvalues not converged
     ethr =  2.07E-04,  avg # of iterations =  4.0

     total cpu time spent up to now is      228.8 secs

     total energy              =   -3877.55433464 Ry
     Harris-Foulkes estimate   =   -3877.58511456 Ry
     estimated scf accuracy    <       0.06187728 Ry

     iteration #  8     ecut=    40.00 Ry     beta=0.70
     CG style diagonalization
     ethr =  2.38E-05,  avg # of iterations =  4.0

     total cpu time spent up to now is      243.1 secs

     total energy              =   -3877.56591104 Ry
     Harris-Foulkes estimate   =   -3877.57271217 Ry
     estimated scf accuracy    <       0.01117578 Ry

     iteration #  9     ecut=    40.00 Ry     beta=0.70
     CG style diagonalization
     c_bands:  1 eigenvalues not converged
     c_bands:  1 eigenvalues not converged
     ethr =  4.30E-06,  avg # of iterations =  4.0

     total cpu time spent up to now is      257.1 secs

     total energy              =   -3877.56922083 Ry
     Harris-Foulkes estimate   =   -3877.56949440 Ry
     estimated scf accuracy    <       0.00056744 Ry

     iteration # 10     ecut=    40.00 Ry     beta=0.70
     CG style diagonalization
     c_bands:  1 eigenvalues not converged
     ethr =  2.18E-07,  avg # of iterations =  4.0

     total cpu time spent up to now is      271.4 secs

     End of self-consistent calculation

          k = 0.0000 0.0000 0.0000 (  3675 PWs)   bands (ev):

   -81.8413 -81.8004 -81.7898 -81.7526 -37.6751 -37.6730 -37.6705 -37.6661
   -37.6649 -37.6603 -37.6592 -37.6401 -37.4121 -37.4039 -37.3912 -37.3744
   -31.5829 -31.4502 -31.4012 -31.3938 -31.1646 -31.0635 -30.9362 -30.9341
     0.0857   0.3659   0.3804   0.5233   0.6132   0.6541   0.7084   0.7350
     0.9136   0.9653   1.1721   1.2619   1.3586   1.4207   1.4514   1.5124
     1.6255   1.6797   1.7644   1.8167   1.9400   2.0852   2.3891   2.4682
    21.4232  21.4436  21.6144  21.6194  21.6539  21.6710  21.6803  21.6811
    21.7218  21.7425  21.7681  21.8405  21.9058  21.9388  22.0884  22.1292
    22.3281  22.3525  22.4228  22.4947  31.3661  32.6212  34.0380  34.3067
    35.7566  36.1329  36.8341  37.4771  37.6656  37.7346  37.8207  37.8262
    37.8502  37.8563  38.0228  38.0543  38.8216  39.1387  39.1730  39.7605
    39.9250  40.2952  41.3407  41.3563  41.4501  41.5594  41.8369  42.5639
    42.6412  42.6506  42.7806  42.8805  42.8948  43.1932  43.9997  44.4951
    44.5564  44.6092  44.6509  44.8988  45.2697  46.2662  46.3264  46.3712
    46.7386  47.4288  48.6304  49.9027  50.6607  51.6094  52.2001  52.8911
    53.8239  53.9707  55.1733  56.2347  56.4767  56.6101  56.6705  56.9918
    57.2057  57.3988  57.4847  57.7499  57.8178  57.8862  57.9141  58.3445
    58.4498  58.9666  59.1370  59.1860  59.3559  59.6031  59.6205  59.6678
    59.7694  60.5293  60.6294  61.5472  61.6596  61.7422  61.9592  62.0143
    62.4898  62.7366  62.9629  63.6607

          k = 0.0000 0.0000 0.1317 (  3675 PWs)   bands (ev):

   -81.8539 -81.7904 -81.7889 -81.7553 -37.6727 -37.6675 -37.6675 -37.6634
   -37.6625 -37.6589 -37.6571 -37.6517 -37.4132 -37.4129 -37.3853 -37.3798
   -31.5635 -31.4734 -31.4054 -31.3905 -31.1485 -31.0863 -30.9385 -30.9223
     0.1206   0.3419   0.4028   0.4830   0.5557   0.6509   0.6801   0.8511
     0.9282   0.9916   1.1329   1.2023   1.4095   1.4103   1.4484   1.4952
     1.6325   1.7238   1.8107   1.8470   1.8836   2.0369   2.3968   2.4497
    21.4240  21.4668  21.5810  21.6370  21.6652  21.6745  21.6952  21.7137
    21.7255  21.7532  21.7759  21.8148  21.9217  21.9829  22.0708  22.0726
    22.3371  22.3482  22.4062  22.4617  31.6452  32.6520  33.7870  34.1079
    35.9180  36.4821  36.9580  37.0931  37.4431  37.6221  37.7784  37.8410
    37.8669  37.9838  38.2805  38.4211  38.7482  39.0578  39.1680  39.2472
    39.6402  40.3469  40.4174  40.7977  41.8429  41.9293  41.9318  42.2194
    42.2970  42.4747  42.7711  43.3521  43.4401  43.5208  44.0328  44.3571
    44.4071  44.6010  44.7801  45.1135  45.5283  45.8428  46.6631  46.9791
    47.3054  47.9555  48.5653  49.5853  51.3861  51.5432  51.8299  52.3114
    53.3260  54.2640  54.4717  55.3276  55.8058  56.1744  56.1840  56.5710
    57.1068  57.3901  57.7775  57.9814  58.2355  58.2584  58.5471  58.5796
    58.7733  58.7840  59.1075  59.1906  59.4225  59.8895  59.9023  60.3891
    60.5483  60.5516  60.6451  61.0804  61.1892  61.9961  62.0522  62.2498
    62.2667  62.3429  62.9859  63.3984

          k = 0.0000 0.0000-0.2634 (  3690 PWs)   bands (ev):

   -81.8468 -81.8468 -81.7848 -81.7848 -37.6754 -37.6754 -37.6688 -37.6688
   -37.6614 -37.6614 -37.6515 -37.6515 -37.4247 -37.4247 -37.3866 -37.3866
   -31.5286 -31.5286 -31.3999 -31.3999 -31.1134 -31.1134 -30.9358 -30.9358
     0.2115   0.2115   0.4625   0.4625   0.5519   0.5519   0.8081   0.8081
     1.0174   1.0174   1.1088   1.1088   1.4172   1.4172   1.4608   1.4608
     1.7365   1.7365   1.7793   1.7793   1.9297   1.9297   2.4167   2.4167
    21.4727  21.4727  21.5407  21.5407  21.6713  21.6713  21.7405  21.7405
    21.8079  21.8079  21.8402  21.8402  21.8920  21.8920  22.0429  22.0429
    22.3677  22.3677  22.3877  22.3877  32.2962  32.2962  33.7305  33.7305
    36.4005  36.4005  37.1249  37.1249  37.3271  37.3271  37.7347  37.7347
    38.3465  38.3465  38.3845  38.3845  38.5503  38.5503  38.9713  38.9713
    39.8414  39.8414  40.5567  40.5567  41.6397  41.6397  41.9152  41.9152
    42.3185  42.3185  43.2965  43.2965  43.9533  43.9533  44.1211  44.1211
    44.1505  44.1505  45.0983  45.0983  46.2759  46.2759  47.0429  47.0429
    47.7977  47.7977  49.3296  49.3296  51.1405  51.1405  51.9877  51.9877
    53.1825  53.1825  55.0920  55.0920  55.2293  55.2293  56.5867  56.5867
    56.7320  56.7320  57.7425  57.7425  58.2160  58.2160  58.9062  58.9062
    59.2092  59.2092  59.4989  59.4989  59.8933  59.8934  60.5319  60.5321
    60.7302  60.7302  60.7711  60.7712  61.4573  61.4574  61.8917  61.8917
    62.9216  62.9216  62.9497  62.9499

          k = 0.0000 0.2533 0.0000 (  3664 PWs)   bands (ev):

   -81.8284 -81.8222 -81.7562 -81.7127 -37.6775 -37.6757 -37.6720 -37.6647
   -37.6549 -37.6531 -37.6517 -37.6420 -37.4078 -37.4074 -37.3807 -37.3802
   -31.5319 -31.4669 -31.4029 -31.3839 -31.1029 -31.0444 -30.9908 -30.9680
     0.2802   0.4394   0.5391   0.5659   0.6015   0.6742   0.7260   0.7551
     0.8773   1.0073   1.0625   1.1693   1.2094   1.5396   1.5499   1.6445
     1.6627   1.7757   1.7804   1.8124   1.8357   2.0298   2.0389   2.1579
    21.4546  21.5288  21.5866  21.6217  21.6287  21.7243  21.7661  21.8253
    21.8968  21.9015  21.9162  21.9444  22.0272  22.0304  22.0858  22.1324
    22.2700  22.2942  22.3493  22.3867  32.3528  33.2855  34.0338  34.5786
    36.1178  36.2513  36.4269  36.9673  36.9753  37.1988  37.3665  37.5054
    37.6751  37.9329  38.1679  38.7721  38.8985  39.3848  39.4558  39.5240
    40.1168  40.1212  40.5416  40.8381  40.9021  41.2758  41.3518  41.6026
    41.9465  42.0523  42.7838  43.2032  43.2945  43.3799  43.5187  44.0265
    44.2466  44.5246  44.5399  44.7609  44.8438  45.6362  45.9925  46.0908
    46.4749  46.6010  50.8680  50.8833  50.9440  53.4040  54.2044  54.2482
    54.9070  54.9252  55.1347  55.6156  55.7828  55.9010  56.5480  56.6643
    56.6847  56.7142  57.2552  57.3145  57.4343  57.8681  58.3651  58.4978
    58.5358  58.7805  59.1351  59.2858  59.2958  59.3158  59.8470  60.5621
    60.6916  60.7144  60.7686  61.1912  61.4016  61.8060  62.0841  63.1251
    63.1536  63.3373  63.8971  63.9196

          k = 0.0000 0.2533 0.1317 (  3669 PWs)   bands (ev):

   -81.8157 -81.8130 -81.7807 -81.7459 -37.6799 -37.6741 -37.6675 -37.6638
   -37.6634 -37.6513 -37.6494 -37.6459 -37.4123 -37.4092 -37.3892 -37.3792
   -31.5216 -31.4701 -31.4095 -31.3939 -31.0947 -31.0532 -30.9871 -30.9743
     0.2952   0.4495   0.4649   0.5533   0.5947   0.6459   0.7695   0.8235
     0.9026   0.9873   1.0900   1.1391   1.2476   1.5173   1.5572   1.6147
     1.6919   1.7193   1.7220   1.7602   1.9125   2.0097   2.0788   2.1487
    21.4873  21.5579  21.6103  21.6385  21.6669  21.7247  21.7571  21.7701
    21.8500  21.8878  21.9267  21.9511  21.9683  22.0257  22.1244  22.1635
    22.2617  22.3005  22.3521  22.3551  32.5916  33.3257  34.0594  34.4442
    36.1221  36.2663  36.5308  36.8806  36.9669  37.1171  37.4249  37.4821
    37.6927  37.7589  38.1148  38.6325  38.9797  39.1276  39.2547  39.6656
    39.7122  40.3077  40.3661  40.8461  41.0573  41.0791  41.4885  41.8988
    41.9833  42.2473  42.4058  42.8052  42.9434  43.4340  43.4640  43.9391
    44.1577  44.4302  44.6689  44.7697  45.1819  46.2552  46.3538  46.4702
    46.8193  47.4305  50.6566  50.9525  51.2112  52.4591  53.1986  53.7668
    54.0344  54.9044  54.9080  55.5900  55.6110  56.3850  56.5385  56.7073
    56.7847  57.0385  57.3673  57.6782  57.9614  58.0806  58.2494  58.4289
    58.8155  59.1922  59.2565  59.2923  59.4645  59.7700  59.8280  60.3696
    60.6452  60.6609  60.8980  61.1653  61.4288  61.9164  62.0043  62.6192
    62.6950  63.0956  63.6558  63.7665

          k = 0.0000 0.2533-0.2634 (  3666 PWs)   bands (ev):

   -81.8020 -81.8020 -81.7689 -81.7689 -37.6792 -37.6792 -37.6611 -37.6611
   -37.6526 -37.6526 -37.6518 -37.6518 -37.4100 -37.4100 -37.3835 -37.3835
   -31.4922 -31.4922 -31.4074 -31.4074 -31.0691 -31.0691 -30.9815 -30.9815
     0.3679   0.3679   0.4930   0.4930   0.6233   0.6233   0.8573   0.8573
     0.9151   0.9151   1.1312   1.1312   1.3910   1.3910   1.5797   1.5797
     1.6684   1.6684   1.7309   1.7309   1.9695   1.9695   2.1245   2.1245
    21.5756  21.5756  21.6331  21.6331  21.6644  21.6644  21.8030  21.8030
    21.8614  21.8614  21.8829  21.8829  21.9816  21.9816  22.1763  22.1763
    22.2876  22.2876  22.3331  22.3331  33.1147  33.1147  34.1693  34.1693
    36.2255  36.2255  36.6496  36.6496  37.0054  37.0054  37.5662  37.5662
    37.6430  37.6430  38.5380  38.5380  38.5627  38.5627  39.4145  39.4145
    40.1400  40.1400  40.3779  40.3779  41.2891  41.2891  41.2911  41.2911
    42.0555  42.0555  43.0010  43.0010  43.1924  43.1924  43.5109  43.5109
    44.4256  44.4256  44.6313  44.6313  45.6215  45.6215  46.5379  46.5379
    48.8399  48.8399  50.1822  50.1822  51.6087  51.6087  52.3614  52.3614
    54.4750  54.4750  55.1006  55.1006  56.0945  56.0945  56.8747  56.8747
    56.9988  56.9988  57.4837  57.4837  58.2011  58.2011  58.3947  58.3947
    58.9890  58.9890  59.8296  59.8296  59.8515  59.8516  60.3241  60.3241
    60.8371  60.8371  61.0401  61.0402  61.2140  61.2141  62.4416  62.4418
    62.4473  62.4473  62.9277  62.9279

          k =-0.5000 0.0000 0.0000 (  3722 PWs)   bands (ev):

   -81.8648 -81.8648 -81.8538 -81.8538 -37.7040 -37.7040 -37.6905 -37.6905
   -37.6696 -37.6696 -37.6642 -37.6642 -37.4069 -37.4069 -37.3999 -37.3999
   -31.4458 -31.4458 -31.4314 -31.4314 -31.1591 -31.1591 -30.9514 -30.9514
     0.1667   0.1667   0.3956   0.3956   0.5055   0.5055   0.7531   0.7531
     0.8183   0.8183   1.1799   1.1799   1.4197   1.4197   1.5210   1.5210
     1.8050   1.8050   1.9138   1.9138   2.0023   2.0023   2.3816   2.3816
    21.4399  21.4399  21.4795  21.4795  21.6437  21.6437  21.6466  21.6466
    21.7395  21.7395  21.7990  21.7990  21.8478  21.8478  22.1897  22.1897
    22.2792  22.2792  22.4491  22.4491  32.5895  32.5895  33.8643  33.8643
    36.4650  36.4650  37.6074  37.6074  37.7188  37.7188  38.7502  38.7502
    38.9286  38.9286  39.5050  39.5050  39.7111  39.7111  39.8728  39.8728
    40.3167  40.3167  40.6532  40.6532  40.9651  40.9651  41.3233  41.3233
    41.4518  41.4518  42.5832  42.5832  42.6595  42.6595  42.7673  42.7673
    43.7474  43.7474  45.0637  45.0637  45.1713  45.1713  45.7863  45.7863
    46.3590  46.3590  46.6694  46.6694  51.5414  51.5414  52.0879  52.0879
    53.2947  53.2947  53.9573  53.9573  54.6884  54.6884  56.1926  56.1926
    56.9543  56.9543  58.1509  58.1509  58.6620  58.6620  59.3955  59.3955
    59.4555  59.4555  60.1543  60.1544  60.6597  60.6598  60.8810  60.8811
    60.9524  60.9525  62.4175  62.4177  62.7646  62.7650  62.8151  62.8154
    62.9755  62.9759  63.3160  63.3160

          k =-0.5000 0.0000 0.1317 (  3710 PWs)   bands (ev):

   -81.8445 -81.8445 -81.8424 -81.8424 -37.7001 -37.7001 -37.6873 -37.6873
   -37.6646 -37.6646 -37.6606 -37.6606 -37.4059 -37.4059 -37.3979 -37.3979
   -31.4436 -31.4436 -31.4275 -31.4275 -31.1551 -31.1551 -30.9507 -30.9507
     0.1667   0.1667   0.3468   0.3468   0.6322   0.6322   0.6809   0.6809
     0.9328   0.9328   1.1534   1.1534   1.2760   1.2760   1.5915   1.5915
     1.8077   1.8077   1.9223   1.9223   2.0033   2.0033   2.3784   2.3784
    21.4195  21.4195  21.4725  21.4725  21.6375  21.6375  21.6813  21.6813
    21.7414  21.7414  21.8498  21.8498  21.8677  21.8677  22.1272  22.1272
    22.2759  22.2759  22.4575  22.4575  32.6502  32.6502  33.9574  33.9574
    36.5406  36.5406  37.6642  37.6642  37.7420  37.7420  38.5076  38.5076
    38.9430  38.9430  39.0618  39.0618  39.3870  39.3870  39.6949  39.6949
    39.8765  39.8765  40.6059  40.6059  40.8831  40.8831  41.9276  41.9276
    42.3103  42.3103  42.4206  42.4206  42.8300  42.8300  43.1854  43.1854
    43.6940  43.6940  44.7213  44.7213  44.9704  44.9704  45.7029  45.7029
    45.9774  45.9774  47.9230  47.9230  50.4369  50.4369  52.3815  52.3815
    53.5225  53.5225  54.5719  54.5719  55.0806  55.0806  56.3408  56.3408
    56.7775  56.7775  57.2907  57.2907  58.0872  58.0872  59.3414  59.3414
    59.5291  59.5291  59.5888  59.5888  60.6127  60.6127  60.7884  60.7885
    61.1743  61.1744  61.4731  61.4732  62.1487  62.1488  63.1491  63.1492
    63.7085  63.7087  64.0729  64.0719

          k =-0.5000 0.0000-0.2634 (  3680 PWs)   bands (ev):

   -81.8193 -81.8193 -81.7917 -81.7917 -37.6888 -37.6888 -37.6792 -37.6792
   -37.6573 -37.6573 -37.6517 -37.6517 -37.3980 -37.3980 -37.3959 -37.3959
   -31.4311 -31.4311 -31.4259 -31.4259 -31.1451 -31.1451 -30.9500 -30.9500
     0.1595   0.1595   0.3416   0.3416   0.6231   0.6231   0.8062   0.8062
     1.0151   1.0151   1.1242   1.1242   1.1335   1.1335   1.6170   1.6170
     1.7989   1.7989   1.9591   1.9591   2.0041   2.0041   2.3851   2.3851
    21.4024  21.4024  21.4699  21.4699  21.6442  21.6442  21.6772  21.6772
    21.7804  21.7804  21.8532  21.8532  21.9754  21.9754  22.0156  22.0156
    22.2685  22.2685  22.4656  22.4656  32.7134  32.7134  34.0686  34.0686
    36.6229  36.6229  37.7196  37.7196  37.9044  37.9044  37.9940  37.9940
    38.7615  38.7615  38.9603  38.9603  39.1101  39.1101  39.4161  39.4161
    40.1082  40.1082  40.3048  40.3048  41.2954  41.2954  41.5643  41.5643
    42.7425  42.7425  42.7594  42.7594  43.2402  43.2402  43.5989  43.5989
    43.9319  43.9319  43.9341  43.9341  44.3324  44.3324  45.7347  45.7347
    46.7982  46.7982  48.4692  48.4692  49.4005  49.4005  52.5257  52.5257
    53.6908  53.6908  55.2327  55.2327  55.6385  55.6385  56.2749  56.2749
    56.7128  56.7128  57.0536  57.0536  57.7549  57.7549  57.8527  57.8527
    59.1654  59.1654  59.4470  59.4470  60.1946  60.1946  61.1200  61.1201
    61.4223  61.4223  61.6598  61.6598  62.9786  62.9789  63.3931  63.3931
    63.4475  63.4477  64.0022  64.0026

          k =-0.5000 0.2533 0.0000 (  3686 PWs)   bands (ev):

   -81.8244 -81.8244 -81.8074 -81.8074 -37.7004 -37.7004 -37.6890 -37.6890
   -37.6579 -37.6579 -37.6556 -37.6556 -37.3945 -37.3945 -37.3891 -37.3891
   -31.4284 -31.4284 -31.4259 -31.4259 -31.1000 -31.1000 -30.9984 -30.9984
     0.2930   0.2930   0.3808   0.3808   0.5210   0.5210   0.7962   0.7962
     1.0275   1.0275   1.1622   1.1622   1.3532   1.3532   1.4988   1.4988
     1.8052   1.8052   1.8860   1.8860   2.0048   2.0048   2.1125   2.1125
    21.4635  21.4635  21.4801  21.4801  21.6459  21.6459  21.6599  21.6599
    21.8630  21.8630  21.9510  21.9510  22.0666  22.0666  22.1040  22.1040
    22.3250  22.3250  22.4131  22.4131  33.3072  33.3072  34.0515  34.0515
    36.8513  36.8513  37.5478  37.5478  37.6038  37.6038  38.1313  38.1313
    38.7444  38.7444  39.0718  39.0718  39.1807  39.1807  39.7878  39.7878
    40.1690  40.1690  40.2799  40.2799  41.0315  41.0315  41.0842  41.0842
    41.5301  41.5301  42.0210  42.0210  42.1003  42.1003  43.5329  43.5329
    43.7486  43.7486  44.3208  44.3208  44.5866  44.5866  45.2104  45.2104
    47.6222  47.6222  47.6896  47.6896  50.4280  50.4280  50.5716  50.5716
    55.0295  55.0295  55.7171  55.7171  56.6566  56.6566  56.9874  56.9874
    57.1664  57.1664  57.7680  57.7680  58.3928  58.3928  58.4367  58.4367
    59.8048  59.8049  59.9850  59.9850  60.2992  60.2992  61.2832  61.2833
    61.8091  61.8092  61.9936  61.9936  62.3621  62.3621  62.5939  62.5940
    63.7558  63.7560  63.8515  63.8521

          k =-0.5000 0.2533 0.1317 (  3692 PWs)   bands (ev):

   -81.8486 -81.8486 -81.7986 -81.7986 -37.6934 -37.6934 -37.6904 -37.6904
   -37.6621 -37.6621 -37.6570 -37.6570 -37.4023 -37.4023 -37.3896 -37.3896
   -31.4320 -31.4320 -31.4251 -31.4251 -31.1020 -31.1020 -30.9989 -30.9989
     0.2947   0.2947   0.4180   0.4180   0.5748   0.5748   0.7057   0.7057
     0.9830   0.9830   1.1335   1.1335   1.3974   1.3974   1.5855   1.5855
     1.8034   1.8034   1.8446   1.8446   1.9821   1.9821   2.1009   2.1009
    21.4547  21.4547  21.4809  21.4809  21.6451  21.6451  21.6830  21.6830
    21.8868  21.8868  21.9522  21.9522  22.0457  22.0457  22.0861  22.0861
    22.3353  22.3353  22.4126  22.4126  33.3655  33.3655  34.1433  34.1433
    36.9605  36.9605  37.3826  37.3826  37.6664  37.6664  38.1930  38.1930
    38.5279  38.5279  38.6732  38.6732  39.1229  39.1229  39.5671  39.5671
    40.1579  40.1579  40.3368  40.3368  40.8390  40.8390  41.2867  41.2867
    41.7001  41.7001  41.9718  41.9718  42.6998  42.6998  43.2391  43.2391
    43.9054  43.9054  44.1130  44.1130  44.7812  44.7812  45.2242  45.2242
    47.4032  47.4032  48.0514  48.0514  49.8851  49.8851  51.8616  51.8616
    54.8587  54.8587  55.7674  55.7674  56.1933  56.1933  56.5834  56.5834
    57.0326  57.0326  57.6744  57.6744  58.0615  58.0615  58.8397  58.8397
    59.5572  59.5572  59.9752  59.9753  60.5867  60.5868  60.7952  60.7952
    61.6763  61.6764  61.8917  61.8917  62.4690  62.4690  62.5709  62.5711
    63.2275  63.2278  63.9665  63.9665

          k =-0.5000 0.2533-0.2634 (  3704 PWs)   bands (ev):

   -81.8717 -81.8717 -81.8082 -81.8082 -37.6955 -37.6955 -37.6919 -37.6919
   -37.6647 -37.6647 -37.6587 -37.6587 -37.4046 -37.4046 -37.3975 -37.3975
   -31.4327 -31.4327 -31.4281 -31.4281 -31.1072 -31.1072 -31.0011 -31.0011
     0.2898   0.2898   0.5052   0.5052   0.5566   0.5566   0.6874   0.6874
     0.8607   0.8607   1.1323   1.1323   1.4520   1.4520   1.6940   1.6940
     1.7447   1.7447   1.8015   1.8015   1.9746   1.9746   2.0912   2.0912
    21.4490  21.4490  21.4788  21.4788  21.6452  21.6452  21.7065  21.7065
    21.9270  21.9270  21.9343  21.9343  22.0271  22.0271  22.0681  22.0681
    22.3417  22.3417  22.4120  22.4120  33.4304  33.4304  34.2369  34.2369
    37.0773  37.0773  37.3162  37.3162  37.5229  37.5229  38.1285  38.1285
    38.2127  38.2127  38.9130  38.9130  39.0764  39.0764  39.4029  39.4029
    39.7745  39.7745  40.3492  40.3492  40.7795  40.7795  41.6170  41.6170
    41.6312  41.6312  42.0910  42.0910  42.7112  42.7112  43.5721  43.5721
    43.7693  43.7693  44.4036  44.4036  44.5095  44.5095  45.3158  45.3158
    47.3956  47.3956  48.1019  48.1019  49.8403  49.8403  53.2534  53.2534
    54.7112  54.7112  54.8902  54.8902  56.0404  56.0404  56.2114  56.2114
    57.0267  57.0267  57.2298  57.2298  57.9103  57.9103  59.4368  59.4368
    59.5819  59.5820  59.6731  59.6731  60.1276  60.1276  61.2737  61.2739
    61.3268  61.3268  62.1543  62.1544  62.5782  62.5784  62.6566  62.6567
    63.1616  63.1617  63.9818  63.9819

     the Fermi energy is    57.2810 ev

!    total energy              =   -3877.56937661 Ry
     Harris-Foulkes estimate   =   -3877.56940610 Ry
     estimated scf accuracy    <       0.00003259 Ry

     The total energy is the sum of the following terms:

     one-electron contribution =      11.77861261 Ry
     hartree contribution      =     380.00064571 Ry
     xc contribution           =    -345.08438828 Ry
     ewald contribution        =   -3923.74960062 Ry
     smearing contrib. (-TS)   =      -0.51464604 Ry

     convergence has been achieved in  10 iterations

     Forces acting on atoms (Ry/au):

     atom    1 type  1   force =     0.00000000   -0.00609438   -0.10744479
     atom    2 type  1   force =     0.00000000    0.00609438    0.10744479
     atom    3 type  1   force =     0.00000000   -0.00609438    0.10744479
     atom    4 type  1   force =     0.00000000    0.00609438   -0.10744479
     atom    5 type  1   force =     0.00000000    0.15267798   -0.34870514
     atom    6 type  1   force =     0.00000000   -0.15267798    0.34870514
     atom    7 type  1   force =     0.00000000    0.15267798    0.34870514
     atom    8 type  1   force =     0.00000000   -0.15267798   -0.34870514
     atom    9 type  2   force =     0.00000000   -0.23397513   -0.00274266
     atom   10 type  2   force =     0.00000000    0.23397513    0.00274266
     atom   11 type  2   force =     0.00000000   -0.23397513    0.00274266
     atom   12 type  2   force =     0.00000000    0.23397513   -0.00274266

     Total force =     0.919215     Total SCF correction =     0.000000


     entering subroutine stress ...

          total   stress  (Ry/bohr**3)                   (kbar)     P= 7424.42
   0.05374267   0.00000000   0.00000000       7905.82      0.00      0.00
   0.00000000   0.04718853   0.00000000          0.00   6941.67      0.00
   0.00000000   0.00000000   0.05047935          0.00      0.00   7425.77


     BFGS Geometry Optimization

     number of scf cycles    =   1
     number of bfgs steps    =   0

     enthalpy new            =   -3877.5693766089 Ry

     new trust radius        =       0.5000000000 bohr
     new conv_thr            =       0.0001000000 Ry

     new unit-cell volume =   1086.05331 a.u.^3 (   160.93649 Ang^3 )

CELL_PARAMETERS (alat=  7.01510508)
   1.085136619   0.000000000   0.000000000
   0.000000000   1.414336710   0.000000000
   0.000000000   0.000000000   2.049799432

ATOMIC_POSITIONS (crystal)
Co       0.750000000   0.826359168   0.435224663
Co       0.250000000   0.173640832   0.564775337
Co       0.750000000   0.326359168   0.064775337
Co       0.250000000   0.673640832   0.935224663
Co       0.250000000   0.538133986   0.280685488
Co       0.750000000   0.461866014   0.719314512
Co       0.250000000   0.038133986   0.219314512
Co       0.750000000   0.961866014   0.780685488
Si       0.250000000   0.201247988   0.893586948
Si       0.750000000   0.798752012   0.106413052
Si       0.250000000   0.701247988   0.606413052
Si       0.750000000   0.298752012   0.393586948



     Writing output data file Prototype-La-oP12-Co2Si.save
     NEW-OLD atomic charge density approx. for the potential
     NEW k-points:
        k(    1) = (   0.0000000   0.0000000   0.0000000), wk =   0.0833333
        k(    2) = (   0.0000000   0.0000000   0.1219632), wk =   0.1666667
        k(    3) = (   0.0000000   0.0000000  -0.2439263), wk =   0.0833333
        k(    4) = (   0.0000000   0.2356817   0.0000000), wk =   0.1666667
        k(    5) = (   0.0000000   0.2356817   0.1219632), wk =   0.3333333
        k(    6) = (   0.0000000   0.2356817  -0.2439263), wk =   0.1666667
        k(    7) = (  -0.4607715   0.0000000   0.0000000), wk =   0.0833333
        k(    8) = (  -0.4607715   0.0000000   0.1219632), wk =   0.1666667
        k(    9) = (  -0.4607715   0.0000000  -0.2439263), wk =   0.0833333
        k(   10) = (  -0.4607715   0.2356817   0.0000000), wk =   0.1666667
        k(   11) = (  -0.4607715   0.2356817   0.1219632), wk =   0.3333333
        k(   12) = (  -0.4607715   0.2356817  -0.2439263), wk =   0.1666667

     total cpu time spent up to now is      276.4 secs

     Self-consistent Calculation

     iteration #  1     ecut=    40.00 Ry     beta=0.70
     CG style diagonalization
     c_bands:  4 eigenvalues not converged
     c_bands:  1 eigenvalues not converged
     ethr =  1.00E-06,  avg # of iterations = 22.4

     total cpu time spent up to now is      357.7 secs

     total energy              =   -3871.01660535 Ry
     Harris-Foulkes estimate   =   -3905.73999264 Ry
     estimated scf accuracy    <      43.82588686 Ry

     iteration #  2     ecut=    40.00 Ry     beta=0.70
     CG style diagonalization
     ethr =  1.00E-02,  avg # of iterations =  4.0

     total cpu time spent up to now is      371.9 secs

     total energy              =   -3883.42793179 Ry
     Harris-Foulkes estimate   =   -3886.85328259 Ry
     estimated scf accuracy    <       5.02171773 Ry

     iteration #  3     ecut=    40.00 Ry     beta=0.70
     CG style diagonalization
     ethr =  1.93E-03,  avg # of iterations =  3.7

     total cpu time spent up to now is      385.2 secs

     total energy              =   -3884.78833276 Ry
     Harris-Foulkes estimate   =   -3885.01185289 Ry
     estimated scf accuracy    <       0.40178821 Ry

     iteration #  4     ecut=    40.00 Ry     beta=0.70
     CG style diagonalization
     ethr =  1.55E-04,  avg # of iterations =  3.8

     total cpu time spent up to now is      398.9 secs

     total energy              =   -3884.88460481 Ry
     Harris-Foulkes estimate   =   -3884.89686125 Ry
     estimated scf accuracy    <       0.01980158 Ry

     iteration #  5     ecut=    40.00 Ry     beta=0.70
     CG style diagonalization
     c_bands:  1 eigenvalues not converged
     ethr =  7.62E-06,  avg # of iterations =  4.3

     total cpu time spent up to now is      415.1 secs

     total energy              =   -3884.89213121 Ry
     Harris-Foulkes estimate   =   -3884.89498800 Ry
     estimated scf accuracy    <       0.00585736 Ry

     iteration #  6     ecut=    40.00 Ry     beta=0.70
     CG style diagonalization
     ethr =  2.25E-06,  avg # of iterations =  3.7

     total cpu time spent up to now is      471.8 secs

     total energy              =   -3884.89338244 Ry
     Harris-Foulkes estimate   =   -3884.89365379 Ry
     estimated scf accuracy    <       0.00052542 Ry

     iteration #  7     ecut=    40.00 Ry     beta=0.70
     CG style diagonalization
     ethr =  2.02E-07,  avg # of iterations =  3.6

     total cpu time spent up to now is      526.5 secs

     End of self-consistent calculation

          k = 0.0000 0.0000 0.0000 (  3675 PWs)   bands (ev):

   -92.1328 -92.0827 -92.0687 -92.0221 -49.0750 -49.0735 -49.0731 -49.0693
   -49.0650 -49.0643 -49.0602 -49.0495 -48.9189 -48.9166 -48.9128 -48.9033
   -41.0830 -41.0570 -41.0569 -41.0452 -40.7802 -40.7346 -40.6525 -40.6444
    -8.7747  -8.6782  -8.6733  -8.5771  -8.5564  -8.5154  -8.5113  -8.4952
    -8.4673  -8.4388  -8.2892  -8.2419  -8.2067  -8.2003  -8.0193  -8.0121
    -7.9801  -7.9370  -7.9157  -7.8885  -7.8375  -7.7728  -7.5672  -7.5258
    10.8687  10.9375  10.9442  10.9572  10.9762  11.0059  11.0310  11.0457
    11.0505  11.0672  11.0881  11.0919  11.1379  11.1394  11.1725  11.2104
    11.3144  11.3304  11.3611  11.3933  22.6073  24.0830  24.7151  25.2881
    27.5312  27.8254  28.0653  28.7719  28.9398  28.9447  29.0453  29.1315
    29.1675  29.1918  29.2042  29.2835  29.8330  30.0807  30.1224  30.3996
    30.9049  30.9124  31.7054  31.8219  31.8893  31.9275  32.0607  32.3244
    32.6112  32.7562  32.8086  32.8234  32.8655  33.1042  33.4909  33.8239
    33.8341  33.9439  34.0832  34.3781  34.6671  35.0843  35.2376  35.2855
    35.5164  35.7709  36.7121  38.0096  38.1810  39.4678  40.1620  40.3610
    41.4518  41.4649  42.3679  43.1374  43.2650  44.1319  44.4301  44.6601
    44.7960  45.6168  45.9685  46.2726  46.5629  46.8043  46.9828  47.1674
    47.3175  47.4050  47.4454  47.4904  47.9117  47.9404  48.0178  48.2282
    48.9031  49.0814  49.4335  49.7620  50.2558  50.5267  50.5565  50.7082
    50.7488  51.4052  51.5072  51.8096

          k = 0.0000 0.0000 0.1220 (  3675 PWs)   bands (ev):

   -92.1555 -92.0720 -92.0636 -92.0180 -49.0775 -49.0731 -49.0719 -49.0683
   -49.0623 -49.0584 -49.0579 -49.0553 -48.9226 -48.9206 -48.9093 -48.9052
   -41.0721 -41.0660 -41.0550 -41.0465 -40.7748 -40.7704 -40.6599 -40.6113
    -8.7530  -8.6716  -8.6613  -8.5948  -8.5804  -8.5726  -8.5409  -8.4629
    -8.4381  -8.4009  -8.3066  -8.2793  -8.2093  -8.1917  -8.0234  -7.9945
    -7.9470  -7.9262  -7.9137  -7.8547  -7.8508  -7.8005  -7.5660  -7.5418
    10.8859  10.9289  10.9534  10.9570  10.9743  11.0173  11.0242  11.0364
    11.0587  11.0760  11.0900  11.0943  11.1193  11.1307  11.1839  11.1986
    11.3261  11.3358  11.3603  11.3697  22.8069  23.8653  24.7445  25.1842
    27.6510  28.0251  28.2112  28.4834  28.7708  28.9099  29.0758  29.0870
    29.1321  29.2167  29.3891  29.5081  29.8278  29.9197  30.0482  30.1640
    30.6620  30.9989  31.1695  31.2256  32.1295  32.2541  32.2625  32.3015
    32.5055  32.7387  32.7558  32.8785  33.3036  33.3563  33.5136  33.7077
    33.8293  34.0898  34.0974  34.3057  34.7569  34.7939  35.4642  35.6057
    35.8532  36.2342  36.8420  37.7662  38.7999  39.1054  39.5924  40.2029
    40.6031  41.4366  42.4001  43.0064  43.0833  43.7603  44.1140  44.7353
    45.1848  46.1153  46.3006  46.4394  46.5620  46.7751  46.7939  47.0552
    47.2222  47.2699  47.3359  47.5545  47.9475  48.5812  48.5987  48.6502
    48.7885  49.1378  49.1444  49.9121  49.9352  50.2328  50.4342  50.7639
    50.9071  51.1586  51.4365  51.7844

          k = 0.0000 0.0000-0.2439 (  3690 PWs)   bands (ev):

   -92.1489 -92.1489 -92.0635 -92.0635 -49.0776 -49.0776 -49.0747 -49.0747
   -49.0590 -49.0590 -49.0555 -49.0555 -48.9287 -48.9287 -48.9100 -48.9100
   -41.0745 -41.0745 -41.0682 -41.0682 -40.7683 -40.7683 -40.6491 -40.6491
    -8.7112  -8.7112  -8.6236  -8.6236  -8.6109  -8.6109  -8.5090  -8.5090
    -8.3539  -8.3539  -8.3483  -8.3483  -8.1952  -8.1952  -8.0128  -8.0128
    -7.9149  -7.9149  -7.9033  -7.9033  -7.8530  -7.8530  -7.5622  -7.5622
    10.9071  10.9071  10.9669  10.9669  10.9798  10.9798  11.0367  11.0367
    11.0648  11.0648  11.0999  11.0999  11.1155  11.1155  11.1839  11.1839
    11.3340  11.3340  11.3473  11.3473  23.3140  23.3140  24.9397  24.9397
    27.9986  27.9986  28.3915  28.3915  28.6499  28.6499  29.0866  29.0866
    29.2234  29.2234  29.5761  29.5761  29.8025  29.8025  29.9287  29.9287
    30.7292  30.7292  31.0398  31.0398  32.0158  32.0158  32.1848  32.1848
    32.6500  32.6500  33.1857  33.1857  33.4964  33.4964  33.5929  33.5929
    33.6252  33.6252  34.4190  34.4190  35.2325  35.2325  35.4894  35.4894
    36.3637  36.3637  37.3697  37.3697  38.7560  38.7560  39.5495  39.5495
    40.6525  40.6525  43.1372  43.1372  43.2022  43.2022  43.8373  43.8373
    45.6633  45.6633  46.5148  46.5148  46.6009  46.6009  46.8786  46.8786
    47.4839  47.4839  47.9233  47.9233  48.4020  48.4020  49.1191  49.1191
    49.1850  49.1850  49.6240  49.6240  49.7871  49.7871  50.0085  50.0085
    50.5968  50.5968  51.5833  51.5833

          k = 0.0000 0.2357 0.0000 (  3664 PWs)   bands (ev):

   -92.1261 -92.1212 -92.0104 -91.9480 -49.0773 -49.0731 -49.0684 -49.0665
   -49.0664 -49.0615 -49.0565 -49.0503 -48.9179 -48.9173 -48.9058 -48.9056
   -41.0645 -41.0631 -41.0500 -41.0292 -40.7365 -40.7243 -40.6719 -40.6567
    -8.6952  -8.6359  -8.6106  -8.5883  -8.5621  -8.5396  -8.4947  -8.4762
    -8.4627  -8.3602  -8.3341  -8.2869  -8.2315  -8.0617  -7.9983  -7.9600
    -7.9540  -7.9022  -7.8978  -7.8874  -7.8736  -7.7986  -7.7354  -7.7092
    10.8908  10.9282  10.9614  10.9743  10.9813  11.0076  11.0657  11.0682
    11.1160  11.1198  11.1245  11.1490  11.1499  11.1542  11.1913  11.2579
    11.2819  11.3262  11.3503  11.3504  23.3516  24.5910  24.6937  25.2741
    27.7662  27.8491  27.9257  28.2579  28.3397  28.3894  28.7178  28.9970
    29.1168  29.2057  29.3687  29.7500  29.9963  30.3049  30.3501  30.4007
    30.7428  30.9162  31.1503  31.3407  31.4058  31.5289  31.7322  31.9133
    32.1702  32.2222  32.8018  33.0211  33.0932  33.1729  33.2537  33.7322
    33.8480  33.8574  33.8795  34.1316  34.2383  34.7824  34.9380  35.1540
    35.3124  35.4507  38.6069  38.6369  38.7398  41.0534  41.4197  41.8190
    41.9794  42.2346  42.4117  42.7293  43.3215  43.6163  43.6531  44.0220
    44.5094  44.7026  45.1952  45.4794  45.6575  46.2206  47.2134  47.2989
    47.5075  47.6549  47.9419  48.0837  48.3194  48.6070  48.9938  49.0180
    49.1203  49.5073  49.7376  50.0082  50.1409  50.3381  50.5287  50.8329
    50.8734  51.5659  51.6153  51.9001

          k = 0.0000 0.2357 0.1220 (  3669 PWs)   bands (ev):

   -92.1105 -92.1026 -92.0481 -91.9964 -49.0764 -49.0753 -49.0723 -49.0668
   -49.0641 -49.0611 -49.0530 -49.0520 -48.9205 -48.9187 -48.9104 -48.9049
   -41.0699 -41.0614 -41.0493 -41.0409 -40.7414 -40.7330 -40.6695 -40.6601
    -8.6996  -8.6364  -8.6332  -8.5863  -8.5830  -8.5497  -8.4996  -8.4691
    -8.4271  -8.3610  -8.3302  -8.2962  -8.2182  -8.0751  -7.9833  -7.9643
    -7.9478  -7.9231  -7.9154  -7.9134  -7.8414  -7.8059  -7.7293  -7.7127
    10.9014  10.9332  10.9531  10.9705  10.9862  11.0150  11.0473  11.0710
    11.1113  11.1194  11.1209  11.1421  11.1499  11.1548  11.2033  11.2528
    11.2783  11.3317  11.3337  11.3473  23.5266  24.3958  24.8375  25.1816
    27.7237  27.8743  27.9296  28.1978  28.3660  28.4322  28.6752  28.9328
    29.0954  29.1097  29.4244  29.7222  30.0003  30.1287  30.2526  30.4246
    30.5360  30.9055  31.0480  31.4030  31.5100  31.5357  31.9166  32.1325
    32.1726  32.3090  32.4680  32.8304  32.9335  33.0935  33.3057  33.5720
    33.8218  33.8253  34.1025  34.1284  34.4218  35.2345  35.2748  35.3362
    35.5383  35.9575  38.4100  38.7917  38.9176  40.1304  40.7168  41.3168
    41.3261  42.1044  42.3227  42.8285  43.2008  43.5533  43.8378  44.3321
    45.0317  45.4641  45.5857  45.8804  45.9291  46.0699  46.9369  47.2204
    47.2778  47.6133  47.9439  48.0075  48.3122  48.7579  48.9421  49.1490
    49.2606  49.4307  49.7456  49.8657  49.9729  50.1888  50.5692  50.7978
    50.8868  51.0586  51.3113  52.3008

          k = 0.0000 0.2357-0.2439 (  3666 PWs)   bands (ev):

   -92.0842 -92.0842 -92.0333 -92.0333 -49.0754 -49.0754 -49.0679 -49.0679
   -49.0600 -49.0600 -49.0547 -49.0547 -48.9190 -48.9190 -48.9073 -48.9073
   -41.0616 -41.0616 -41.0474 -41.0474 -40.7290 -40.7290 -40.6693 -40.6693
    -8.6706  -8.6706  -8.6096  -8.6096  -8.5665  -8.5665  -8.4804  -8.4804
    -8.3897  -8.3897  -8.3042  -8.3042  -8.1443  -8.1443  -7.9743  -7.9743
    -7.9329  -7.9329  -7.9255  -7.9255  -7.8254  -7.8254  -7.7167  -7.7167
    10.9220  10.9220  10.9593  10.9593  11.0130  11.0130  11.0533  11.0533
    11.1071  11.1071  11.1303  11.1303  11.1525  11.1525  11.2330  11.2330
    11.3064  11.3064  11.3407  11.3407  23.9635  23.9635  25.0283  25.0283
    27.7051  27.7051  28.1479  28.1479  28.3633  28.3633  28.8234  28.8234
    29.0401  29.0401  29.7240  29.7240  29.8058  29.8058  30.2305  30.2305
    30.7496  30.7496  31.1110  31.1110  31.7772  31.7772  31.7805  31.7805
    32.2255  32.2255  32.9390  32.9390  32.9767  32.9767  33.2646  33.2646
    33.9980  33.9980  33.9985  33.9985  34.7554  34.7554  35.3874  35.3874
    37.0450  37.0450  37.9373  37.9373  39.5976  39.5976  39.9047  39.9047
    41.9178  41.9178  42.3664  42.3664  43.5615  43.5615  43.9805  43.9805
    45.6900  45.6900  45.9516  45.9516  46.1666  46.1666  47.2921  47.2921
    47.4380  47.4380  48.0445  48.0445  48.2905  48.2905  48.6649  48.6649
    49.2307  49.2307  50.0593  50.0594  50.3193  50.3193  50.7188  50.7189
    50.9655  50.9655  51.1140  51.1140

          k =-0.4608 0.0000 0.0000 (  3722 PWs)   bands (ev):

   -92.1883 -92.1883 -92.1693 -92.1693 -49.0792 -49.0792 -49.0777 -49.0777
   -49.0739 -49.0739 -49.0666 -49.0666 -48.9209 -48.9209 -48.9166 -48.9166
   -41.0911 -41.0911 -41.0798 -41.0798 -40.7810 -40.7810 -40.6895 -40.6895
    -8.7497  -8.7497  -8.6865  -8.6865  -8.6327  -8.6327  -8.5175  -8.5175
    -8.4567  -8.4567  -8.3177  -8.3177  -8.1691  -8.1691  -8.0276  -8.0276
    -7.9230  -7.9230  -7.8677  -7.8677  -7.8156  -7.8156  -7.5600  -7.5600
    10.8627  10.8627  10.8826  10.8826  10.9885  10.9885  11.0074  11.0074
    11.0599  11.0599  11.0713  11.0713  11.1214  11.1214  11.2428  11.2428
    11.2871  11.2871  11.3675  11.3675  24.1458  24.1458  24.5735  24.5735
    27.9919  27.9919  28.9667  28.9667  29.0655  29.0655  29.9128  29.9128
    29.9314  29.9314  30.3741  30.3741  30.4041  30.4041  30.7314  30.7314
    30.9449  30.9449  31.0481  31.0481  31.5284  31.5284  31.7021  31.7021
    31.8108  31.8108  32.3706  32.3706  32.5527  32.5527  32.7108  32.7108
    33.3280  33.3280  34.2118  34.2118  34.2529  34.2529  34.9298  34.9298
    35.3053  35.3053  35.6082  35.6082  38.8342  38.8342  39.8291  39.8291
    40.5915  40.5915  40.8292  40.8292  44.4041  44.4041  44.6402  44.6402
    45.3335  45.3335  46.3130  46.3130  46.8000  46.8000  47.1930  47.1930
    47.9796  47.9796  48.6924  48.6924  48.9327  48.9327  48.9598  48.9598
    49.1940  49.1940  50.5706  50.5706  50.9580  50.9580  51.1827  51.1827
    51.4519  51.4519  51.9035  51.9035

          k =-0.4608 0.0000 0.1220 (  3710 PWs)   bands (ev):

   -92.1545 -92.1545 -92.1515 -92.1515 -49.0795 -49.0795 -49.0741 -49.0741
   -49.0701 -49.0701 -49.0650 -49.0650 -48.9204 -48.9204 -48.9155 -48.9155
   -41.0892 -41.0892 -41.0667 -41.0667 -40.7733 -40.7733 -40.6824 -40.6824
    -8.7406  -8.7406  -8.7087  -8.7087  -8.5693  -8.5693  -8.5539  -8.5539
    -8.4060  -8.4060  -8.3226  -8.3226  -8.2125  -8.2125  -8.0009  -8.0009
    -7.9284  -7.9284  -7.8570  -7.8570  -7.8127  -7.8127  -7.5648  -7.5648
    10.8620  10.8620  10.8817  10.8817  10.9993  10.9993  11.0108  11.0108
    11.0626  11.0626  11.0801  11.0801  11.1303  11.1303  11.2207  11.2207
    11.3001  11.3001  11.3712  11.3712  24.1641  24.1641  24.6292  24.6292
    27.9754  27.9754  28.9502  28.9502  29.1088  29.1088  29.5831  29.5831
    30.0160  30.0160  30.1806  30.1806  30.3376  30.3376  30.5195  30.5195
    30.7290  30.7290  31.2756  31.2756  31.3242  31.3242  31.8577  31.8577
    32.3407  32.3407  32.4224  32.4224  32.6349  32.6349  33.0179  33.0179
    33.3969  33.3969  33.9481  33.9481  34.1820  34.1820  34.8018  34.8018
    35.1555  35.1555  36.4109  36.4109  38.2766  38.2766  39.3577  39.3577
    40.8017  40.8017  41.6909  41.6909  43.7487  43.7487  44.3876  44.3876
    45.2162  45.2162  46.4819  46.4819  47.0776  47.0776  47.2872  47.2872
    47.6020  47.6020  48.1513  48.1513  48.8504  48.8504  49.0462  49.0462
    49.7249  49.7249  50.3682  50.3682  50.6900  50.6900  51.1831  51.1831
    51.9996  51.9996  52.2995  52.2995

          k =-0.4608 0.0000-0.2439 (  3680 PWs)   bands (ev):

   -92.1140 -92.1140 -92.0683 -92.0683 -49.0732 -49.0732 -49.0672 -49.0672
   -49.0641 -49.0641 -49.0628 -49.0628 -48.9153 -48.9153 -48.9144 -48.9144
   -41.0647 -41.0647 -41.0566 -41.0566 -40.7395 -40.7395 -40.6819 -40.6819
    -8.7413  -8.7413  -8.6968  -8.6968  -8.5754  -8.5754  -8.4979  -8.4979
    -8.3544  -8.3544  -8.3236  -8.3236  -8.2724  -8.2724  -7.9584  -7.9584
    -7.9552  -7.9552  -7.8470  -7.8470  -7.7867  -7.7867  -7.5543  -7.5543
    10.8631  10.8631  10.8886  10.8886  11.0120  11.0120  11.0175  11.0175
    11.0696  11.0696  11.0810  11.0810  11.1667  11.1667  11.1873  11.1873
    11.3100  11.3100  11.3810  11.3810  24.1840  24.1840  24.6992  24.6992
    27.9455  27.9455  28.9956  28.9956  29.0406  29.0406  29.3748  29.3748
    30.0243  30.0243  30.1400  30.1400  30.2775  30.2775  30.2904  30.2904
    30.8501  30.8501  31.1369  31.1369  31.3675  31.3675  31.7056  31.7056
    32.5717  32.5717  32.6641  32.6641  32.9481  32.9481  33.4124  33.4124
    33.4516  33.4516  33.5958  33.5958  33.6973  33.6973  34.9322  34.9322
    35.6260  35.6260  36.8688  36.8688  37.4718  37.4718  39.1418  39.1418
    41.0681  41.0681  42.1504  42.1504  43.8013  43.8013  44.0559  44.0559
    44.7190  44.7190  46.4979  46.4979  46.6845  46.6845  47.3914  47.3914
    47.5650  47.5650  48.4088  48.4088  48.7567  48.7567  49.0202  49.0202
    49.7381  49.7381  50.2837  50.2837  50.9456  50.9456  51.5095  51.5096
    51.7988  51.7988  52.6767  52.6767

          k =-0.4608 0.2357 0.0000 (  3686 PWs)   bands (ev):

   -92.1227 -92.1227 -92.0955 -92.0955 -49.0728 -49.0728 -49.0726 -49.0726
   -49.0695 -49.0695 -49.0651 -49.0651 -48.9125 -48.9125 -48.9091 -48.9091
   -41.0693 -41.0693 -41.0634 -41.0634 -40.7361 -40.7361 -40.6969 -40.6969
    -8.7112  -8.7112  -8.6684  -8.6684  -8.6056  -8.6056  -8.5120  -8.5120
    -8.3571  -8.3571  -8.3007  -8.3007  -8.1284  -8.1284  -8.0301  -8.0301
    -7.9424  -7.9424  -7.8592  -7.8592  -7.7942  -7.7942  -7.7159  -7.7159
    10.8759  10.8759  10.8822  10.8822  11.0002  11.0002  11.0084  11.0084
    11.1037  11.1037  11.1358  11.1358  11.1901  11.1901  11.2180  11.2180
    11.3167  11.3167  11.3620  11.3620  24.5945  24.5945  24.8362  24.8362
    28.2023  28.2023  28.6802  28.6802  28.8876  28.8876  29.3955  29.3955
    29.9959  29.9959  30.1403  30.1403  30.1968  30.1968  30.6009  30.6009
    30.8699  30.8699  30.9354  30.9354  31.3424  31.3424  31.4308  31.4308
    31.8258  31.8258  32.1114  32.1114  32.2393  32.2393  33.3091  33.3091
    33.3457  33.3457  33.8618  33.8618  34.0106  34.0106  34.3017  34.3017
    36.0853  36.0853  36.1394  36.1394  38.2214  38.2214  38.2946  38.2946
    42.0553  42.0553  44.2699  44.2699  44.8513  44.8513  45.0224  45.0224
    45.4135  45.4135  45.4206  45.4206  46.9010  46.9010  47.4506  47.4506
    47.5960  47.5960  48.5477  48.5477  48.5905  48.5905  49.5537  49.5537
    50.0332  50.0332  50.4137  50.4137  50.5903  50.5903  51.1648  51.1648
    51.4695  51.4695  51.7891  51.7891

          k =-0.4608 0.2357 0.1220 (  3692 PWs)   bands (ev):

   -92.1601 -92.1601 -92.0809 -92.0809 -49.0744 -49.0744 -49.0719 -49.0719
   -49.0681 -49.0681 -49.0659 -49.0659 -48.9174 -48.9174 -48.9094 -48.9094
   -41.0722 -41.0722 -41.0671 -41.0671 -40.7404 -40.7404 -40.6970 -40.6970
    -8.7079  -8.7079  -8.6524  -8.6524  -8.5899  -8.5899  -8.5416  -8.5416
    -8.3652  -8.3652  -8.3178  -8.3178  -8.1239  -8.1239  -8.0016  -8.0016
    -7.9347  -7.9347  -7.8788  -7.8788  -7.8069  -7.8069  -7.7253  -7.7253
    10.8726  10.8726  10.8806  10.8806  11.0070  11.0070  11.0106  11.0106
    11.1099  11.1099  11.1377  11.1377  11.1827  11.1827  11.2093  11.2093
    11.3194  11.3194  11.3549  11.3549  24.6085  24.6085  24.8829  24.8829
    28.1899  28.1899  28.6022  28.6022  29.0032  29.0032  29.4418  29.4418
    29.7682  29.7682  29.9062  29.9062  30.1747  30.1747  30.4626  30.4626
    30.7359  30.7359  30.9379  30.9379  31.3802  31.3802  31.6198  31.6198
    31.9425  31.9425  32.1353  32.1353  32.6291  32.6291  33.0535  33.0535
    33.4921  33.4921  33.6539  33.6539  34.0117  34.0117  34.4629  34.4629
    36.0070  36.0070  36.3844  36.3844  37.7747  37.7747  39.3689  39.3689
    41.6371  41.6371  43.3837  43.3837  44.1869  44.1869  44.4032  44.4032
    45.8135  45.8135  46.3736  46.3736  47.1597  47.1597  47.4761  47.4761
    47.9493  47.9494  48.1653  48.1653  49.1165  49.1165  49.5974  49.5974
    49.8732  49.8732  50.0746  50.0746  50.7290  50.7290  51.1060  51.1060
    51.4209  51.4209  51.8085  51.8086

          k =-0.4608 0.2357-0.2439 (  3704 PWs)   bands (ev):

   -92.1961 -92.1961 -92.0954 -92.0954 -49.0756 -49.0756 -49.0735 -49.0735
   -49.0695 -49.0695 -49.0667 -49.0667 -48.9191 -48.9191 -48.9143 -48.9143
   -41.0806 -41.0806 -41.0717 -41.0717 -40.7501 -40.7501 -40.7014 -40.7014
    -8.7128  -8.7128  -8.6195  -8.6195  -8.6050  -8.6050  -8.5520  -8.5520
    -8.4019  -8.4019  -8.3277  -8.3277  -8.1160  -8.1160  -7.9619  -7.9619
    -7.9531  -7.9531  -7.9001  -7.9001  -7.8075  -7.8075  -7.7336  -7.7336
    10.8685  10.8685  10.8805  10.8805  11.0048  11.0048  11.0178  11.0178
    11.1146  11.1146  11.1400  11.1400  11.1774  11.1774  11.1991  11.1991
    11.3159  11.3159  11.3458  11.3458  24.6248  24.6248  24.9251  24.9251
    28.1482  28.1482  28.5554  28.5554  29.1013  29.1013  29.4998  29.4998
    29.5350  29.5350  30.0082  30.0082  30.0914  30.0914  30.1959  30.1959
    30.5296  30.5296  30.9805  30.9805  31.3295  31.3295  31.8808  31.8808
    31.9968  31.9968  32.2118  32.2118  32.7303  32.7303  33.2793  33.2793
    33.3116  33.3116  33.7420  33.7420  33.8090  33.8090  34.6016  34.6016
    36.0313  36.0313  36.4462  36.4462  37.8058  37.8058  40.3956  40.3956
    41.4040  41.4040  41.9074  41.9074  43.8833  43.8833  44.2575  44.2575
    46.0374  46.0374  46.7371  46.7371  47.1287  47.1287  47.8986  47.8986
    47.9960  47.9960  48.5649  48.5649  49.0221  49.0221  49.4428  49.4428
    49.5254  49.5254  50.4186  50.4186  50.5393  50.5393  51.1588  51.1588
    51.4827  51.4827  51.7600  51.7601

     the Fermi energy is    45.6264 ev

!    total energy              =   -3884.89350146 Ry
     Harris-Foulkes estimate   =   -3884.89353956 Ry
     estimated scf accuracy    <       0.00004652 Ry

     The total energy is the sum of the following terms:

     one-electron contribution =    -390.98241593 Ry
     hartree contribution      =     478.09117935 Ry
     xc contribution           =    -337.30350754 Ry
     ewald contribution        =   -3634.31833935 Ry
     smearing contrib. (-TS)   =      -0.38041798 Ry

     convergence has been achieved in   7 iterations

     Forces acting on atoms (Ry/au):

     atom    1 type  1   force =     0.00000000   -0.01073690   -0.01690110
     atom    2 type  1   force =     0.00000000    0.01073690    0.01690110
     atom    3 type  1   force =     0.00000000   -0.01073690    0.01690110
     atom    4 type  1   force =     0.00000000    0.01073690   -0.01690110
     atom    5 type  1   force =     0.00000000    0.08319549   -0.18297017
     atom    6 type  1   force =     0.00000000   -0.08319549    0.18297017
     atom    7 type  1   force =     0.00000000    0.08319549    0.18297017
     atom    8 type  1   force =     0.00000000   -0.08319549   -0.18297017
     atom    9 type  2   force =     0.00000000   -0.12923295    0.06853296
     atom   10 type  2   force =     0.00000000    0.12923295   -0.06853296
     atom   11 type  2   force =     0.00000000   -0.12923295   -0.06853296
     atom   12 type  2   force =     0.00000000    0.12923295    0.06853296

     Total force =     0.498792     Total SCF correction =     0.000000


     entering subroutine stress ...

          total   stress  (Ry/bohr**3)                   (kbar)     P= 2595.32
   0.01961380   0.00000000   0.00000000       2885.29      0.00      0.00
   0.00000000   0.01603115   0.00000000          0.00   2358.26      0.00
   0.00000000   0.00000000   0.01728287          0.00      0.00   2542.40


     number of scf cycles    =   2
     number of bfgs steps    =   1

     enthalpy old            =   -3877.5693766089 Ry
     enthalpy new            =   -3884.8935014552 Ry

     CASE: enthalpy_new < enthalpy_old

     small trust_radius: resetting bfgs history

     new trust radius        =       3.2318958698 bohr
     new conv_thr            =       0.0001000000 Ry

     new unit-cell volume =   3246.92547 a.u.^3 (   481.14471 Ang^3 )

CELL_PARAMETERS (alat=  7.01510508)
   1.617227991   0.000000000   0.000000000
   0.000000000   1.981172801   0.000000000
   0.000000000   0.000000000   2.935460030

ATOMIC_POSITIONS (crystal)
Co       0.750000000   0.825277007   0.434049307
Co       0.250000000   0.174722993   0.565950693
Co       0.750000000   0.325277007   0.065950693
Co       0.250000000   0.674722993   0.934049307
Co       0.250000000   0.546519174   0.267961163
Co       0.750000000   0.453480826   0.732038837
Co       0.250000000   0.046519174   0.232038837
Co       0.750000000   0.953480826   0.767961163
Si       0.250000000   0.188222732   0.898352947
Si       0.750000000   0.811777268   0.101647053
Si       0.250000000   0.688222732   0.601647053
Si       0.750000000   0.311777268   0.398352947



     Writing output data file Prototype-La-oP12-Co2Si.save
     NEW-OLD atomic charge density approx. for the potential
     NEW k-points:
        k(    1) = (   0.0000000   0.0000000   0.0000000), wk =   0.0833333
        k(    2) = (   0.0000000   0.0000000   0.0851655), wk =   0.1666667
        k(    3) = (   0.0000000   0.0000000  -0.1703311), wk =   0.0833333
        k(    4) = (   0.0000000   0.1682505   0.0000000), wk =   0.1666667
        k(    5) = (   0.0000000   0.1682505   0.0851655), wk =   0.3333333
        k(    6) = (   0.0000000   0.1682505  -0.1703311), wk =   0.1666667
        k(    7) = (  -0.3091710   0.0000000   0.0000000), wk =   0.0833333
        k(    8) = (  -0.3091710   0.0000000   0.0851655), wk =   0.1666667
        k(    9) = (  -0.3091710   0.0000000  -0.1703311), wk =   0.0833333
        k(   10) = (  -0.3091710   0.1682505   0.0000000), wk =   0.1666667
        k(   11) = (  -0.3091710   0.1682505   0.0851655), wk =   0.3333333
        k(   12) = (  -0.3091710   0.1682505  -0.1703311), wk =   0.1666667

     total cpu time spent up to now is      537.6 secs

     Self-consistent Calculation

     iteration #  1     ecut=    40.00 Ry     beta=0.70
     CG style diagonalization
     c_bands:  4 eigenvalues not converged
     c_bands:  1 eigenvalues not converged
     c_bands:  1 eigenvalues not converged
     c_bands:  1 eigenvalues not converged
     c_bands:  2 eigenvalues not converged
     c_bands:  2 eigenvalues not converged
     c_bands:  1 eigenvalues not converged
     c_bands:  4 eigenvalues not converged
     c_bands:  2 eigenvalues not converged
     ethr =  1.00E-06,  avg # of iterations = 35.1

     total cpu time spent up to now is      994.0 secs

     total energy              =   -3727.09331865 Ry
     Harris-Foulkes estimate   =   -4167.89096870 Ry
     estimated scf accuracy    <     552.36525252 Ry

     iteration #  2     ecut=    40.00 Ry     beta=0.70
     CG style diagonalization
     ethr =  1.00E-02,  avg # of iterations =  5.8

     total cpu time spent up to now is     1079.6 secs

     total energy              =   -3832.68540384 Ry
     Harris-Foulkes estimate   =   -3845.37885753 Ry
     estimated scf accuracy    <      17.04078609 Ry

     iteration #  3     ecut=    40.00 Ry     beta=0.70
     CG style diagonalization
     ethr =  6.55E-03,  avg # of iterations =  3.8

     total cpu time spent up to now is     1141.0 secs

     total energy              =   -3838.38969516 Ry
     Harris-Foulkes estimate   =   -3840.33239879 Ry
     estimated scf accuracy    <       3.26380998 Ry

     iteration #  4     ecut=    40.00 Ry     beta=0.70
     CG style diagonalization
     ethr =  1.26E-03,  avg # of iterations =  3.5

     total cpu time spent up to now is     1191.7 secs

     total energy              =   -3839.01381524 Ry
     Harris-Foulkes estimate   =   -3839.13340070 Ry
     estimated scf accuracy    <       0.20001539 Ry

     iteration #  5     ecut=    40.00 Ry     beta=0.70
     CG style diagonalization
     c_bands:  1 eigenvalues not converged
     c_bands:  1 eigenvalues not converged
     ethr =  7.69E-05,  avg # of iterations =  4.0

     total cpu time spent up to now is     1247.8 secs

     total energy              =   -3839.06807679 Ry
     Harris-Foulkes estimate   =   -3839.09337171 Ry
     estimated scf accuracy    <       0.04404281 Ry

     iteration #  6     ecut=    40.00 Ry     beta=0.70
     CG style diagonalization
     ethr =  1.69E-05,  avg # of iterations =  3.6

     total cpu time spent up to now is     1317.2 secs

     total energy              =   -3839.07831425 Ry
     Harris-Foulkes estimate   =   -3839.08606221 Ry
     estimated scf accuracy    <       0.01618383 Ry

     iteration #  7     ecut=    40.00 Ry     beta=0.70
     CG style diagonalization
     c_bands:  1 eigenvalues not converged
     ethr =  6.22E-06,  avg # of iterations =  3.5

     total cpu time spent up to now is     1385.7 secs

     total energy              =   -3839.08157780 Ry
     Harris-Foulkes estimate   =   -3839.08183364 Ry
     estimated scf accuracy    <       0.00045386 Ry

     iteration #  8     ecut=    40.00 Ry     beta=0.70
     CG style diagonalization
     ethr =  1.75E-07,  avg # of iterations =  3.8

     total cpu time spent up to now is     1435.3 secs

     total energy              =   -3839.08171771 Ry
     Harris-Foulkes estimate   =   -3839.08177821 Ry
     estimated scf accuracy    <       0.00010171 Ry

     iteration #  9     ecut=    40.00 Ry     beta=0.70
     CG style diagonalization
     ethr =  3.91E-08,  avg # of iterations =  3.5

     total cpu time spent up to now is     1483.5 secs

     End of self-consistent calculation

          k = 0.0000 0.0000 0.0000 (  3675 PWs)   bands (ev):

  -127.3014-127.2861-127.2785-127.2197 -90.1607 -89.9185 -89.8754 -89.7693
   -89.6745 -89.5427 -89.5376 -89.4629 -88.7546 -88.4837 -88.4006 -88.3631
   -65.5823 -65.5224 -65.5099 -65.4442 -65.3801 -65.3331 -65.2573 -65.1927
   -38.8845 -38.8773 -38.8722 -38.8621 -38.8361 -38.8307 -38.8304 -38.8237
   -38.7892 -38.7885 -38.7884 -38.7835 -38.7709 -38.7588 -38.7569 -38.7523
   -38.7449 -38.7336 -38.7294 -38.7116 -38.6694 -38.6594 -38.6548 -38.6452
   -18.8540 -18.6866 -18.5818 -18.4847 -18.4593 -18.3377 -18.2638 -18.1453
   -17.7815 -17.7535 -17.5638 -17.5144 -17.4478 -17.2056 -17.1947 -17.0474
   -16.9915 -16.7274 -16.6949 -16.6775  -1.9879  -1.8809  -1.8337  -1.7690
     3.8470   3.9288   4.0402   4.0499   4.0643   4.1858   4.2150   4.2281
     4.2402   4.2519   4.2938   4.2948   4.2978   4.3139   4.3432   4.3595
     4.4220   4.4583   4.4806   4.4876   4.5222   4.5265   4.5271   4.5401
     4.5633   4.5813   4.5826   4.6298   4.6495   4.6885   4.6977   4.7021
     4.7113   4.7263   4.7794   4.7859   4.7939   4.9043   4.9252   4.9405
     7.0795   7.3817   7.6397   7.7756   8.1969   8.2461   8.2688   8.9527
     9.0215   9.1702   9.3177   9.3572   9.8337  10.1317  10.3093  10.9976
    12.0503  12.0892  12.2359  12.3870  12.5452  13.0062  13.2213  13.6163
    14.0200  14.4521  14.6696  14.7443  14.7965  15.0873  15.0930  15.5040
    16.0741  16.1032  16.1967  16.2043  17.0260  17.3439  17.4289  17.7474
    17.8465  18.0942  18.8428  19.4584

          k = 0.0000 0.0000 0.0852 (  3675 PWs)   bands (ev):

  -127.3059-127.2877-127.2652-127.2423 -90.1806 -89.9791 -89.9624 -89.8230
   -89.6289 -89.5595 -89.5282 -89.3726 -88.6630 -88.4947 -88.3810 -88.2820
   -65.6070 -65.5655 -65.5131 -65.4356 -65.3477 -65.3103 -65.2907 -65.1645
   -38.8832 -38.8802 -38.8705 -38.8667 -38.8371 -38.8305 -38.8257 -38.8231
   -38.7924 -38.7887 -38.7870 -38.7853 -38.7679 -38.7603 -38.7586 -38.7496
   -38.7422 -38.7286 -38.7233 -38.7142 -38.6603 -38.6603 -38.6472 -38.6419
   -18.7220 -18.6824 -18.6736 -18.5447 -18.4578 -18.3813 -18.3462 -18.2601
   -17.9092 -17.8498 -17.6379 -17.4214 -17.4005 -17.1947 -17.0477 -17.0106
   -16.9092 -16.9037 -16.4986 -16.4607  -1.9755  -1.9063  -1.8123  -1.7737
     3.8553   3.8649   4.0424   4.0472   4.1382   4.1638   4.1945   4.2230
     4.2403   4.2448   4.2817   4.2839   4.3079   4.3115   4.3517   4.3524
     4.4053   4.4357   4.4465   4.4836   4.4837   4.5168   4.5238   4.5422
     4.5690   4.5893   4.6209   4.6656   4.6681   4.6765   4.6942   4.6980
     4.7130   4.7477   4.7628   4.8150   4.8485   4.8869   4.9667   5.0303
     7.1658   7.5272   7.6032   7.7263   8.0880   8.3157   8.4067   8.5951
     8.9524   8.9683   9.4170   9.6020   9.8037  10.3479  10.4500  10.7981
    11.4500  11.8802  12.1445  12.6007  12.7871  13.2850  13.2999  13.3878
    14.1380  14.3162  14.7494  14.9085  15.1035  15.1497  15.1828  15.5345
    15.7786  16.0187  16.3376  16.5863  17.0732  17.2099  17.3122  17.6009
    17.8945  18.1868  18.4817  18.5545

          k = 0.0000 0.0000-0.1703 (  3690 PWs)   bands (ev):

  -127.3264-127.3264-127.2708-127.2708 -90.1910 -90.1910 -89.9689 -89.9689
   -89.6571 -89.6571 -89.4580 -89.4580 -88.5623 -88.5623 -88.2577 -88.2577
   -65.6642 -65.6642 -65.4796 -65.4796 -65.3649 -65.3649 -65.2507 -65.2507
   -38.8848 -38.8848 -38.8711 -38.8711 -38.8342 -38.8342 -38.8231 -38.8231
   -38.7914 -38.7914 -38.7902 -38.7902 -38.7605 -38.7605 -38.7560 -38.7560
   -38.7294 -38.7294 -38.7162 -38.7162 -38.6574 -38.6574 -38.6427 -38.6427
   -18.9116 -18.9116 -18.7201 -18.7201 -18.5060 -18.5060 -18.4798 -18.4798
   -17.8550 -17.8550 -17.4654 -17.4654 -17.2060 -17.2060 -16.9885 -16.9885
   -16.9802 -16.9802 -16.5360 -16.5360  -1.9446  -1.9446  -1.7875  -1.7875
     3.8535   3.8535   4.0593   4.0593   4.0832   4.0832   4.1601   4.1601
     4.2041   4.2041   4.2461   4.2461   4.2669   4.2669   4.3970   4.3970
     4.4032   4.4032   4.4263   4.4263   4.5183   4.5183   4.5354   4.5354
     4.6063   4.6063   4.6644   4.6644   4.6830   4.6830   4.7232   4.7232
     4.7321   4.7321   4.7522   4.7522   4.8321   4.8321   5.0137   5.0137
     7.3412   7.3412   7.8332   7.8332   7.9670   7.9670   8.6149   8.6149
     8.7414   8.7414   9.7417   9.7417   9.9903   9.9903  10.6507  10.6507
    11.4120  11.4120  12.2461  12.2461  12.9664  12.9664  13.8205  13.8205
    14.3977  14.3977  14.5135  14.5135  15.2034  15.2034  15.3108  15.3109
    16.1446  16.1447  16.5128  16.5129  17.2036  17.2037  17.4490  17.4492
    18.0406  18.0407  18.2604  18.2612

          k = 0.0000 0.1683 0.0000 (  3664 PWs)   bands (ev):

  -127.3035-127.2716-127.2441-127.2275 -90.0428 -89.9884 -89.8870 -89.7902
   -89.6745 -89.6185 -89.3336 -89.3209 -88.6922 -88.4011 -88.3963 -88.2822
   -65.5420 -65.5387 -65.4774 -65.4754 -65.3079 -65.2624 -65.2181 -65.2126
   -38.8778 -38.8762 -38.8701 -38.8692 -38.8343 -38.8325 -38.8229 -38.8182
   -38.7908 -38.7878 -38.7863 -38.7813 -38.7666 -38.7642 -38.7511 -38.7463
   -38.7426 -38.7313 -38.7214 -38.7089 -38.6613 -38.6549 -38.6448 -38.6418
   -18.6437 -18.6331 -18.5755 -18.5654 -18.3546 -18.2597 -18.2371 -18.1466
   -17.8859 -17.6723 -17.6521 -17.4772 -17.3908 -17.2675 -17.0480 -16.9061
   -16.8926 -16.7845 -16.4823 -16.4611  -1.9454  -1.8869  -1.8168  -1.7824
     3.9172   4.0020   4.0275   4.0987   4.1148   4.1539   4.1559   4.2083
     4.2504   4.2595   4.2616   4.2770   4.3245   4.3326   4.3382   4.3971
     4.4110   4.4365   4.4479   4.4677   4.4774   4.4943   4.5231   4.5327
     4.5546   4.5837   4.5952   4.6181   4.6650   4.6653   4.6852   4.7021
     4.7127   4.7345   4.7860   4.7914   4.8237   4.8801   4.9751   5.0078
     6.8611   6.9550   7.4933   7.5075   8.5723   8.6794   8.9582   9.0946
     9.2659   9.3551   9.4220   9.5655   9.9017  10.2046  10.5586  10.7319
    11.7390  12.2439  12.3988  12.6819  12.7182  12.9832  13.2781  13.4532
    13.6259  14.2215  14.3414  14.5615  14.7673  14.9448  15.1626  16.0955
    16.1742  16.3510  16.3563  16.4792  16.6193  16.9774  17.1496  17.7492
    17.8984  18.0461  18.0465  18.3693

          k = 0.0000 0.1683 0.0852 (  3669 PWs)   bands (ev):

  -127.3065-127.2756-127.2567-127.2408 -90.0552 -89.9866 -89.9382 -89.9161
   -89.6592 -89.5452 -89.4930 -89.3577 -88.6106 -88.4260 -88.3409 -88.2564
   -65.6118 -65.5549 -65.4691 -65.4252 -65.3578 -65.2796 -65.2327 -65.2078
   -38.8808 -38.8790 -38.8705 -38.8692 -38.8366 -38.8304 -38.8254 -38.8208
   -38.7917 -38.7890 -38.7871 -38.7834 -38.7645 -38.7597 -38.7583 -38.7512
   -38.7404 -38.7362 -38.7099 -38.7037 -38.6601 -38.6491 -38.6447 -38.6413
   -18.7212 -18.6754 -18.6571 -18.5542 -18.4365 -18.3825 -18.3073 -18.2476
   -17.8348 -17.6557 -17.6018 -17.5818 -17.4083 -17.2095 -17.0461 -16.9175
   -16.8490 -16.6746 -16.5633 -16.4312  -1.9369  -1.8972  -1.8082  -1.7877
     3.9213   3.9536   4.0342   4.0911   4.1160   4.1465   4.1681   4.1926
     4.2180   4.2423   4.2495   4.2756   4.3047   4.3331   4.3583   4.3677
     4.4112   4.4129   4.4467   4.4474   4.4583   4.4991   4.5118   4.5271
     4.5855   4.6073   4.6183   4.6206   4.6245   4.6494   4.6986   4.7006
     4.7202   4.7322   4.7810   4.7894   4.8291   4.8785   4.9694   5.0219
     6.9027   6.9840   7.4853   7.5205   8.6645   8.6775   8.9310   9.0450
     9.1317   9.3600   9.4498   9.5614   9.8773  10.1357  10.6327  10.8026
    11.6069  11.8529  12.2013  12.3257  13.1227  13.3465  13.3566  13.7089
    13.9145  14.2850  14.4372  14.6069  14.7220  14.8475  15.3098  15.8306
    15.9754  16.1122  16.2811  16.4661  16.7219  17.1746  17.1937  17.6295
    17.7638  18.1103  18.2337  18.2776

          k = 0.0000 0.1683-0.1703 (  3666 PWs)   bands (ev):

  -127.2819-127.2819-127.2490-127.2490 -90.0341 -90.0341 -89.8872 -89.8872
   -89.6235 -89.6235 -89.3847 -89.3847 -88.4894 -88.4894 -88.3355 -88.3355
   -65.5511 -65.5511 -65.4084 -65.4084 -65.3200 -65.3200 -65.2596 -65.2596
   -38.8805 -38.8805 -38.8675 -38.8675 -38.8307 -38.8307 -38.8271 -38.8271
   -38.7893 -38.7893 -38.7854 -38.7854 -38.7600 -38.7600 -38.7572 -38.7572
   -38.7384 -38.7384 -38.7065 -38.7065 -38.6579 -38.6579 -38.6426 -38.6426
   -18.7491 -18.7491 -18.5396 -18.5396 -18.4195 -18.4195 -18.2017 -18.2017
   -17.7312 -17.7312 -17.5472 -17.5472 -17.2570 -17.2570 -17.0452 -17.0452
   -16.7856 -16.7856 -16.4890 -16.4890  -1.9188  -1.9188  -1.7967  -1.7967
     3.9238   3.9238   4.0724   4.0724   4.1254   4.1254   4.1783   4.1783
     4.2403   4.2403   4.2517   4.2517   4.3088   4.3088   4.3799   4.3799
     4.3851   4.3851   4.4332   4.4332   4.4888   4.4888   4.5155   4.5155
     4.5923   4.5923   4.6348   4.6348   4.6400   4.6400   4.7257   4.7257
     4.7476   4.7476   4.7918   4.7918   4.8604   4.8604   5.0066   5.0066
     6.9815   6.9815   7.5145   7.5145   8.7129   8.7129   8.8987   8.8987
     9.2561   9.2561   9.5111   9.5111   9.9671   9.9671  10.7963  10.7963
    11.6840  11.6840  11.9208  11.9208  13.3835  13.3835  13.8817  13.8817
    14.3972  14.3972  14.4428  14.4428  14.9247  14.9247  15.2245  15.2245
    15.8619  15.8619  16.2248  16.2248  17.1099  17.1100  17.5857  17.5857
    17.9233  17.9233  18.1329  18.1331

          k =-0.3092 0.0000 0.0000 (  3722 PWs)   bands (ev):

  -127.3281-127.3281-127.3074-127.3074 -90.0391 -90.0391 -89.9781 -89.9781
   -89.7638 -89.7638 -89.6080 -89.6080 -88.9264 -88.9264 -88.7388 -88.7388
   -65.5777 -65.5777 -65.5616 -65.5616 -65.4892 -65.4892 -65.4337 -65.4337
   -38.8776 -38.8776 -38.8727 -38.8727 -38.8397 -38.8397 -38.8322 -38.8322
   -38.7993 -38.7993 -38.7792 -38.7792 -38.7680 -38.7680 -38.7660 -38.7660
   -38.7542 -38.7542 -38.7525 -38.7525 -38.6937 -38.6937 -38.6828 -38.6828
   -18.7792 -18.7792 -18.7433 -18.7433 -18.7321 -18.7321 -18.3809 -18.3809
   -17.7552 -17.7552 -17.6506 -17.6506 -17.5170 -17.5170 -17.3824 -17.3824
   -17.3780 -17.3780 -17.2379 -17.2379  -1.8994  -1.8994  -1.8346  -1.8346
     3.8686   3.8686   3.9687   3.9687   4.0965   4.0965   4.1713   4.1713
     4.1968   4.1968   4.2307   4.2307   4.3265   4.3265   4.3760   4.3760
     4.3774   4.3774   4.4511   4.4511   4.4622   4.4622   4.4716   4.4716
     4.5190   4.5190   4.5249   4.5249   4.6002   4.6002   4.6390   4.6390
     4.7036   4.7036   4.7809   4.7809   4.8152   4.8152   4.8257   4.8257
     6.8987   6.8987   7.5867   7.5867   7.9298   7.9298   8.1523   8.1523
     8.7464   8.7464   9.0936   9.0936  10.8545  10.8545  11.0721  11.0721
    11.5962  11.5962  12.1286  12.1286  12.5451  12.5451  13.7984  13.7984
    14.2896  14.2896  14.9454  14.9454  15.5497  15.5497  16.5292  16.5292
    16.5450  16.5450  17.1842  17.1843  17.3299  17.3300  17.4721  17.4721
    17.7415  17.7416  18.6282  18.6286

          k =-0.3092 0.0000 0.0852 (  3710 PWs)   bands (ev):

  -127.3094-127.3094-127.3040-127.3040 -90.0590 -90.0590 -89.9635 -89.9635
   -89.6813 -89.6813 -89.5366 -89.5366 -88.8192 -88.8192 -88.7081 -88.7081
   -65.5745 -65.5745 -65.5367 -65.5367 -65.4267 -65.4267 -65.4142 -65.4142
   -38.8768 -38.8768 -38.8730 -38.8730 -38.8347 -38.8347 -38.8288 -38.8288
   -38.7973 -38.7973 -38.7807 -38.7807 -38.7652 -38.7652 -38.7605 -38.7605
   -38.7507 -38.7507 -38.7488 -38.7488 -38.6923 -38.6923 -38.6745 -38.6745
   -18.7700 -18.7700 -18.7143 -18.7143 -18.5367 -18.5367 -18.4727 -18.4727
   -17.7214 -17.7214 -17.5673 -17.5673 -17.4070 -17.4070 -17.3356 -17.3356
   -17.2737 -17.2737 -17.1331 -17.1331  -1.8971  -1.8971  -1.8337  -1.8337
     3.8741   3.8741   3.9963   3.9963   4.0851   4.0851   4.1810   4.1810
     4.2144   4.2144   4.2654   4.2654   4.3284   4.3284   4.3996   4.3996
     4.4109   4.4109   4.4314   4.4314   4.4781   4.4781   4.4989   4.4989
     4.5123   4.5123   4.5229   4.5229   4.6536   4.6536   4.6925   4.6925
     4.7156   4.7156   4.7858   4.7858   4.8132   4.8132   4.8446   4.8446
     6.8688   6.8688   7.6996   7.6996   7.9471   7.9471   8.1072   8.1072
     8.7421   8.7421   9.2101   9.2101  10.5804  10.5804  10.9340  10.9340
    11.5009  11.5009  12.1859  12.1859  12.7940  12.7940  14.2197  14.2197
    14.4400  14.4400  14.9537  14.9537  15.6176  15.6176  16.2625  16.2625
    16.3819  16.3819  16.6784  16.6784  17.3394  17.3394  17.6300  17.6300
    17.7495  17.7495  18.6415  18.6415

          k =-0.3092 0.0000-0.1703 (  3680 PWs)   bands (ev):

  -127.2851-127.2851-127.2663-127.2663 -90.0357 -90.0357 -89.9604 -89.9604
   -89.4789 -89.4789 -89.3801 -89.3801 -88.6803 -88.6803 -88.6091 -88.6091
   -65.4777 -65.4777 -65.4716 -65.4716 -65.3772 -65.3772 -65.3444 -65.3444
   -38.8755 -38.8755 -38.8733 -38.8733 -38.8275 -38.8275 -38.8210 -38.8210
   -38.7966 -38.7966 -38.7803 -38.7803 -38.7610 -38.7610 -38.7516 -38.7516
   -38.7418 -38.7418 -38.7390 -38.7390 -38.6852 -38.6852 -38.6642 -38.6642
   -18.6619 -18.6619 -18.6104 -18.6104 -18.5074 -18.5074 -18.2093 -18.2093
   -17.6591 -17.6591 -17.5473 -17.5473 -17.2151 -17.2151 -17.1319 -17.1319
   -16.9953 -16.9953 -16.9917 -16.9917  -1.8935  -1.8935  -1.8325  -1.8325
     3.8940   3.8940   4.0622   4.0622   4.0744   4.0744   4.2171   4.2171
     4.2248   4.2248   4.2641   4.2641   4.3396   4.3396   4.4012   4.4012
     4.4460   4.4460   4.4906   4.4906   4.5127   4.5127   4.5288   4.5288
     4.5341   4.5341   4.5628   4.5628   4.7355   4.7355   4.7813   4.7813
     4.7854   4.7854   4.8062   4.8062   4.8536   4.8536   4.8605   4.8605
     6.8585   6.8585   7.8498   7.8498   7.9463   7.9463   8.0658   8.0658
     8.7764   8.7764   9.3283   9.3283  10.4286  10.4286  10.7459  10.7459
    11.4513  11.4513  12.0926  12.0926  13.1873  13.1873  14.4230  14.4230
    14.8372  14.8372  15.2389  15.2389  15.5729  15.5729  15.8480  15.8480
    16.1202  16.1202  16.2708  16.2709  17.0741  17.0741  17.8695  17.8695
    18.1529  18.1529  18.7270  18.7270

          k =-0.3092 0.1683 0.0000 (  3686 PWs)   bands (ev):

  -127.2745-127.2745-127.2675-127.2675 -89.9499 -89.9499 -89.8841 -89.8841
   -89.5297 -89.5297 -89.5213 -89.5213 -88.8523 -88.8523 -88.7533 -88.7533
   -65.4864 -65.4864 -65.4676 -65.4676 -65.3947 -65.3947 -65.3850 -65.3850
   -38.8751 -38.8751 -38.8723 -38.8723 -38.8317 -38.8317 -38.8279 -38.8279
   -38.7908 -38.7908 -38.7839 -38.7839 -38.7610 -38.7610 -38.7607 -38.7607
   -38.7550 -38.7550 -38.7503 -38.7503 -38.6945 -38.6945 -38.6792 -38.6792
   -18.5853 -18.5853 -18.4264 -18.4264 -18.4048 -18.4048 -18.3628 -18.3628
   -17.6701 -17.6701 -17.6034 -17.6034 -17.3424 -17.3424 -17.3214 -17.3214
   -17.2618 -17.2618 -17.1780 -17.1780  -1.8730  -1.8730  -1.8404  -1.8404
     3.9860   3.9860   4.0692   4.0692   4.0895   4.0895   4.1925   4.1925
     4.2236   4.2236   4.3374   4.3374   4.3459   4.3459   4.3612   4.3612
     4.3960   4.3960   4.4273   4.4273   4.4656   4.4656   4.4914   4.4914
     4.5273   4.5273   4.5605   4.5605   4.6330   4.6330   4.6592   4.6592
     4.7066   4.7066   4.7115   4.7115   4.7874   4.7874   4.7899   4.7899
     7.1141   7.1141   7.2397   7.2397   7.7039   7.7039   8.2078   8.2078
     9.1718   9.1718   9.6171   9.6171  10.9552  10.9552  11.0901  11.0901
    11.7541  11.7541  12.2221  12.2221  13.2446  13.2446  13.4774  13.4774
    14.4758  14.4758  15.0191  15.0191  15.1248  15.1248  15.8726  15.8726
    16.3522  16.3522  16.7378  16.7379  17.0483  17.0483  17.0582  17.0582
    18.0041  18.0041  18.1798  18.1799

          k =-0.3092 0.1683 0.0852 (  3692 PWs)   bands (ev):

  -127.3056-127.3056-127.2593-127.2593 -90.0863 -90.0863 -89.8861 -89.8861
   -89.5696 -89.5696 -89.4918 -89.4918 -88.7582 -88.7582 -88.7235 -88.7235
   -65.5113 -65.5113 -65.4837 -65.4837 -65.4071 -65.4071 -65.3870 -65.3870
   -38.8775 -38.8775 -38.8752 -38.8752 -38.8293 -38.8293 -38.8281 -38.8281
   -38.7936 -38.7936 -38.7862 -38.7862 -38.7617 -38.7617 -38.7589 -38.7589
   -38.7498 -38.7498 -38.7439 -38.7439 -38.6879 -38.6879 -38.6736 -38.6736
   -18.6989 -18.6989 -18.5819 -18.5819 -18.4262 -18.4262 -18.3348 -18.3348
   -17.8141 -17.8141 -17.6307 -17.6307 -17.4131 -17.4131 -17.2872 -17.2872
   -17.0895 -17.0895 -17.0149 -17.0149  -1.8710  -1.8710  -1.8396  -1.8396
     3.9711   3.9711   4.0299   4.0299   4.1003   4.1003   4.1870   4.1870
     4.2012   4.2012   4.3155   4.3155   4.3439   4.3439   4.3632   4.3632
     4.3801   4.3801   4.4302   4.4302   4.4800   4.4800   4.4917   4.4917
     4.5297   4.5297   4.5466   4.5466   4.6367   4.6367   4.6732   4.6732
     4.7121   4.7121   4.7432   4.7432   4.7817   4.7817   4.8241   4.8241
     6.9684   6.9684   7.2931   7.2931   7.8563   7.8563   8.3844   8.3844
     9.0061   9.0061   9.5450   9.5450  10.5834  10.5834  10.9708  10.9708
    11.9296  11.9296  12.4246  12.4246  13.4942  13.4942  13.6879  13.6879
    14.4581  14.4581  14.9591  14.9591  15.0586  15.0586  15.7753  15.7753
    16.3798  16.3798  16.6804  16.6804  16.8720  16.8720  17.2397  17.2397
    17.6964  17.6964  17.9220  17.9223

          k =-0.3092 0.1683-0.1703 (  3704 PWs)   bands (ev):

  -127.3212-127.3212-127.2778-127.2778 -90.1553 -90.1553 -89.9920 -89.9920
   -89.5585 -89.5585 -89.4611 -89.4611 -88.7699 -88.7699 -88.7637 -88.7637
   -65.5337 -65.5337 -65.5322 -65.5322 -65.4415 -65.4415 -65.3982 -65.3982
   -38.8799 -38.8799 -38.8787 -38.8787 -38.8301 -38.8301 -38.8229 -38.8229
   -38.7957 -38.7957 -38.7901 -38.7901 -38.7613 -38.7613 -38.7556 -38.7556
   -38.7482 -38.7482 -38.7480 -38.7480 -38.6885 -38.6885 -38.6764 -38.6764
   -18.8258 -18.8258 -18.6553 -18.6553 -18.4621 -18.4621 -18.4081 -18.4081
   -17.8454 -17.8454 -17.7263 -17.7263 -17.4081 -17.4081 -17.4067 -17.4067
   -17.0602 -17.0602 -16.9620 -16.9620  -1.8707  -1.8707  -1.8398  -1.8398
     3.9625   3.9625   4.0125   4.0125   4.0764   4.0764   4.1640   4.1640
     4.1694   4.1694   4.3011   4.3011   4.3190   4.3190   4.3476   4.3476
     4.3727   4.3727   4.4287   4.4287   4.4610   4.4610   4.4872   4.4872
     4.5203   4.5203   4.5309   4.5309   4.6142   4.6142   4.7012   4.7012
     4.7286   4.7286   4.7453   4.7453   4.7809   4.7809   4.8197   4.8197
[...]
    23.9787  24.0161  24.2579  24.3044  24.5452  24.6002  24.6896  24.7888
    25.2986  25.4396  25.6174  25.6233  26.3291  26.4356  26.4927  26.5599
    26.6927  26.8120  26.8474  26.9362  27.3195  27.3236  27.4056  27.4922
    27.6027  27.8294  27.8776  28.0217  28.2917  28.4427  28.8613  28.8758
    29.3912  29.4133  30.0440  30.8845  31.3681  31.9288  32.4051  33.0377
    33.1598  33.6048  34.8847  35.3009  35.3811  35.9848  36.1244  36.8739
    37.2118  38.7376  38.7703  38.8568  38.9433  39.1796  39.3965  39.6591
    39.7483  39.8703  40.6458  40.8631  40.9905  41.3414  41.4103  41.6648
    41.7206  41.9233  42.4270  42.6098  42.7958  43.0690  43.4138  43.4780
    43.7424  43.8776  43.9195  44.5128

          k = 0.0000 0.0000-0.2316 (  5466 PWs)   bands (ev):

  -100.0580-100.0580-100.0175-100.0175 -55.6291 -55.6291 -55.6289 -55.6289
   -55.6187 -55.6186 -55.6176 -55.6176 -55.5365 -55.5364 -55.5280 -55.5278
   -47.4039 -47.4039 -47.3886 -47.3886 -47.1053 -47.1053 -47.0584 -47.0584
   -14.6265 -14.6265 -14.5881 -14.5881 -14.5841 -14.5841 -14.5664 -14.5663
   -14.4509 -14.4509 -14.4480 -14.4480 -14.3639 -14.3638 -14.1817 -14.1817
   -14.1702 -14.1702 -14.1139 -14.1139 -14.0879 -14.0879 -13.8831 -13.8831
     4.6743   4.6743   4.6997   4.6997   4.7086   4.7086   4.7540   4.7540
     4.7559   4.7559   4.7872   4.7873   4.7993   4.7993   4.8349   4.8349
     4.9346   4.9346   4.9357   4.9357  17.9435  17.9435  19.4826  19.4826
    23.0673  23.0673  23.2920  23.2920  23.5608  23.5608  23.9633  23.9633
    23.9898  23.9898  24.3606  24.3606  24.5612  24.5612  24.6098  24.6098
    25.2631  25.2631  25.4748  25.4748  26.2839  26.2839  26.4415  26.4415
    26.8408  26.8408  27.1824  27.1824  27.3571  27.3571  27.4605  27.4605
    27.4712  27.4712  28.1417  28.1417  28.7195  28.7195  28.7377  28.7377
    29.7790  29.7790  30.5005  30.5005  31.5958  31.5958  32.2248  32.2248
    33.1368  33.1369  35.6249  35.6249  35.6346  35.6346  35.8988  35.8988
    37.8957  37.8957  38.8502  38.8502  39.1194  39.1194  39.5984  39.5984
    40.3386  40.3386  40.5594  40.5594  41.1779  41.1779  41.5476  41.5476
    42.0367  42.0367  42.3793  42.3794  42.8715  42.8714  43.3440  43.3440
    43.7399  43.7399  44.1596  44.1599

          k = 0.0000 0.2251 0.0000 (  5449 PWs)   bands (ev):

  -100.0609-100.0445-100.0271 -99.9638 -55.6333 -55.6302 -55.6264 -55.6216
   -55.6207 -55.6172 -55.6120 -55.6058 -55.5326 -55.5315 -55.5302 -55.5226
   -47.4039 -47.4004 -47.3898 -47.3789 -47.0916 -47.0885 -47.0757 -47.0658
   -14.6422 -14.6084 -14.5857 -14.5691 -14.5637 -14.5556 -14.5540 -14.5501
   -14.4794 -14.4583 -14.4417 -14.4400 -14.3099 -14.2556 -14.1773 -14.1706
   -14.1684 -14.1586 -14.1274 -14.1158 -14.1132 -14.0706 -13.9956 -13.9861
     4.6691   4.6838   4.6957   4.7031   4.7078   4.7268   4.7519   4.7552
     4.7829   4.7899   4.8036   4.8042   4.8058   4.8125   4.8425   4.8848
     4.8853   4.9273   4.9306   4.9338  17.9884  19.0566  19.1453  19.6010
    22.8559  22.8824  22.9297  23.2154  23.2176  23.3257  23.6553  23.7718
    24.0457  24.1740  24.2198  24.4493  24.7036  24.9380  24.9968  25.0039
    25.2239  25.4407  25.5877  25.7536  25.7679  25.7954  25.9986  26.2139
    26.3606  26.4625  26.8746  27.0371  27.0847  27.1277  27.2440  27.6022
    27.6232  27.6607  27.6830  27.8917  27.9773  28.4385  28.5090  28.6860
    28.7483  28.9147  31.2003  31.3067  31.4942  33.6619  33.7910  34.3617
    34.5566  34.6551  34.8362  35.0562  35.3931  35.9766  36.2122  36.3024
    36.8872  37.3083  37.5665  37.9433  38.2595  38.6697  39.5333  40.2225
    40.7782  40.7835  40.8581  40.8897  41.3516  41.4504  41.7143  41.7699
    42.2278  42.6071  42.6073  42.6581  42.6745  43.2450  43.3495  43.4020
    43.7768  43.9854  44.0382  44.4119

          k = 0.0000 0.2251 0.1158 (  5446 PWs)   bands (ev):

  -100.0509-100.0412-100.0278 -99.9652 -55.6316 -55.6239 -55.6234 -55.6206
   -55.6202 -55.6196 -55.6179 -55.6080 -55.5324 -55.5309 -55.5290 -55.5210
   -47.4028 -47.3987 -47.3895 -47.3813 -47.0943 -47.0883 -47.0709 -47.0648
   -14.6304 -14.6090 -14.5779 -14.5743 -14.5667 -14.5629 -14.5526 -14.5460
   -14.4704 -14.4567 -14.4467 -14.4444 -14.3020 -14.2602 -14.1785 -14.1712
   -14.1677 -14.1643 -14.1236 -14.1167 -14.1055 -14.0761 -13.9947 -13.9871
     4.6725   4.6871   4.6921   4.7008   4.7122   4.7325   4.7422   4.7550
     4.7825   4.7904   4.8034   4.8056   4.8063   4.8115   4.8485   4.8744
     4.8976   4.9245   4.9282   4.9333  18.1246  18.8412  19.2801  19.5554
    22.7869  22.9075  22.9427  23.1262  23.3158  23.3716  23.5759  23.7590
    23.9732  24.0556  24.3291  24.4482  24.6662  24.7891  24.9303  25.0040
    25.1230  25.3831  25.5217  25.7531  25.8571  25.9086  26.2006  26.3104
    26.4090  26.4773  26.6397  26.9330  26.9805  27.0508  27.2881  27.4556
    27.6158  27.6712  27.8263  27.9137  28.0899  28.7468  28.7501  28.7801
    29.0017  29.3096  31.0630  31.3641  31.7735  32.9482  33.3559  33.8420
    33.8803  34.4764  34.8402  35.1621  35.4611  35.9818  36.0009  36.5129
    37.3403  37.9408  38.0503  38.2587  38.6009  38.6468  39.2530  40.1574
    40.4973  40.6872  40.8325  40.8817  40.9092  41.3085  41.7767  41.8010
    42.2212  42.2576  42.3715  42.8859  43.0217  43.1597  43.3630  43.4891
    43.7640  43.9482  43.9482  44.5181

          k = 0.0000 0.2251-0.2316 (  5460 PWs)   bands (ev):

  -100.0585-100.0585-100.0128-100.0128 -55.6295 -55.6295 -55.6240 -55.6240
   -55.6228 -55.6228 -55.6149 -55.6149 -55.5368 -55.5366 -55.5252 -55.5250
   -47.4037 -47.4036 -47.3876 -47.3876 -47.0938 -47.0938 -47.0711 -47.0711
   -14.6239 -14.6239 -14.5767 -14.5767 -14.5729 -14.5729 -14.5491 -14.5491
   -14.4603 -14.4603 -14.4520 -14.4520 -14.2815 -14.2815 -14.1738 -14.1738
   -14.1656 -14.1656 -14.1262 -14.1262 -14.0959 -14.0959 -13.9938 -13.9938
     4.6820   4.6820   4.6938   4.6938   4.7252   4.7252   4.7437   4.7437
     4.7863   4.7863   4.8050   4.8051   4.8080   4.8080   4.8612   4.8612
     4.9100   4.9100   4.9301   4.9301  18.4664  18.4664  19.4346  19.4346
    22.7465  22.7465  23.1586  23.1586  23.2948  23.2948  23.6809  23.6809
    23.9450  23.9450  24.4665  24.4665  24.6233  24.6233  24.8282  24.8282
    25.2530  25.2530  25.5628  25.5628  26.0969  26.0969  26.1389  26.1389
    26.4109  26.4109  26.9837  26.9837  26.9898  26.9898  27.2303  27.2303
    27.7548  27.7548  27.8154  27.8154  28.3610  28.3610  28.8208  28.8208
    30.1958  30.1958  30.7398  30.7398  32.4176  32.4177  32.6311  32.6311
    34.4139  34.4139  34.7542  34.7542  35.8495  35.8495  36.1223  36.1223
    37.9485  37.9485  38.6065  38.6065  38.6834  38.6834  39.9599  39.9599
    40.4955  40.4955  40.5317  40.5317  40.9217  40.9218  41.5615  41.5614
    42.1115  42.1114  42.7956  42.7956  43.0326  43.0326  43.6798  43.6798
    43.7607  43.7608  44.1622  44.1623

          k =-0.4325 0.0000 0.0000 (  5484 PWs)   bands (ev):

  -100.0891-100.0891-100.0345-100.0345 -55.6326 -55.6326 -55.6284 -55.6284
   -55.6260 -55.6260 -55.6233 -55.6233 -55.5370 -55.5370 -55.5308 -55.5308
   -47.4011 -47.4011 -47.3972 -47.3972 -47.1101 -47.1101 -47.0662 -47.0662
   -14.6321 -14.6321 -14.6156 -14.6156 -14.5912 -14.5912 -14.5625 -14.5625
   -14.4906 -14.4906 -14.4505 -14.4505 -14.3389 -14.3389 -14.2035 -14.2035
   -14.1520 -14.1520 -14.1023 -14.1023 -14.0915 -14.0915 -13.8830 -13.8830
     4.6541   4.6541   4.6589   4.6589   4.7292   4.7292   4.7387   4.7387
     4.7699   4.7699   4.7727   4.7727   4.8031   4.8031   4.8639   4.8639
     4.8973   4.8973   4.9513   4.9513  18.9074  18.9074  18.9211  18.9211
    22.9588  22.9588  23.7937  23.7937  23.9728  23.9728  24.6070  24.6070
    24.6557  24.6557  24.9422  24.9422  25.0009  25.0009  25.2625  25.2625
    25.4176  25.4176  25.4645  25.4645  25.8763  25.8763  26.0604  26.0604
    26.1039  26.1039  26.4311  26.4311  26.6553  26.6553  26.8504  26.8504
    27.3230  27.3230  27.8473  27.8473  27.9984  27.9984  28.5509  28.5509
    28.7878  28.7878  29.1471  29.1471  31.3016  31.3016  32.5540  32.5540
    33.0840  33.0840  33.1519  33.1519  36.5314  36.5314  37.4184  37.4184
    37.5902  37.5902  39.1689  39.1689  39.6380  39.6380  40.3618  40.3618
    40.7599  40.7599  41.3390  41.3390  41.4923  41.4924  41.7296  41.7296
    42.1421  42.1420  43.5255  43.5254  43.6222  43.6222  43.8538  43.8538
    44.0819  44.0819  44.5181  44.5181

          k =-0.4325 0.0000 0.1158 (  5458 PWs)   bands (ev):

  -100.0476-100.0475-100.0251-100.0251 -55.6267 -55.6267 -55.6259 -55.6259
   -55.6220 -55.6220 -55.6183 -55.6183 -55.5313 -55.5313 -55.5282 -55.5282
   -47.3976 -47.3976 -47.3914 -47.3914 -47.1063 -47.1063 -47.0609 -47.0609
   -14.6280 -14.6280 -14.6113 -14.6113 -14.5765 -14.5765 -14.5637 -14.5637
   -14.4778 -14.4778 -14.4473 -14.4473 -14.3504 -14.3504 -14.1959 -14.1959
   -14.1493 -14.1493 -14.0987 -14.0987 -14.0868 -14.0868 -13.8775 -13.8775
     4.6524   4.6524   4.6617   4.6617   4.7322   4.7322   4.7391   4.7391
     4.7703   4.7703   4.7730   4.7730   4.8107   4.8107   4.8538   4.8538
     4.9025   4.9025   4.9532   4.9532  18.9065  18.9065  18.9669  18.9669
    22.9044  22.9044  23.7895  23.7895  23.9901  23.9901  24.3499  24.3499
    24.6921  24.6921  24.8555  24.8555  24.9623  24.9623  25.0942  25.0942
    25.3099  25.3099  25.7004  25.7004  25.7328  25.7328  26.0326  26.0326
    26.4411  26.4411  26.6207  26.6207  26.6894  26.6894  27.0669  27.0669
    27.4143  27.4143  27.7001  27.7001  27.9322  27.9322  28.4382  28.4382
    28.7490  28.7490  29.7181  29.7181  31.0631  31.0631  31.6872  31.6872
    33.3121  33.3121  34.0637  34.0637  35.8786  35.8786  36.7719  36.7719
    38.0202  38.0201  39.0566  39.0566  39.6776  39.6776  40.6783  40.6784
    40.7407  40.7407  40.9727  40.9728  41.8774  41.8774  42.0861  42.0861
    42.3534  42.3535  43.2239  43.2240  43.3097  43.3097  43.6189  43.6187
    44.3617  44.3617  44.6278  44.6277

          k =-0.4325 0.0000-0.2316 (  5440 PWs)   bands (ev):

  -100.0363-100.0363-100.0006-100.0006 -55.6264 -55.6264 -55.6230 -55.6230
   -55.6182 -55.6182 -55.6149 -55.6149 -55.5287 -55.5287 -55.5221 -55.5221
   -47.3949 -47.3949 -47.3874 -47.3874 -47.1031 -47.1031 -47.0582 -47.0582
   -14.6316 -14.6316 -14.6119 -14.6119 -14.5714 -14.5714 -14.5567 -14.5567
   -14.4697 -14.4697 -14.4390 -14.4390 -14.3551 -14.3551 -14.1893 -14.1893
   -14.1520 -14.1520 -14.0955 -14.0954 -14.0808 -14.0808 -13.8729 -13.8729
     4.6510   4.6510   4.6618   4.6618   4.7355   4.7355   4.7402   4.7402
     4.7709   4.7709   4.7740   4.7740   4.8226   4.8226   4.8392   4.8392
     4.9054   4.9054   4.9554   4.9554  18.9157  18.9157  19.0016  19.0016
    22.8341  22.8341  23.8653  23.8653  23.8732  23.8732  24.2253  24.2253
    24.7420  24.7420  24.8134  24.8134  24.9011  24.9011  25.0191  25.0191
    25.3723  25.3723  25.6297  25.6297  25.6444  25.6444  25.9665  25.9665
    26.6088  26.6088  26.7479  26.7479  26.9653  26.9653  27.3319  27.3319
    27.4646  27.4646  27.5079  27.5079  27.5777  27.5777  28.5981  28.5981
    29.1148  29.1148  30.1264  30.1264  30.5651  30.5651  31.1606  31.1606
    33.5805  33.5805  34.4814  34.4814  35.9403  35.9403  36.3049  36.3049
    37.2119  37.2119  39.2993  39.2993  39.8456  39.8456  40.6662  40.6662
    40.9589  40.9590  41.4339  41.4339  41.8469  41.8469  41.8502  41.8503
    42.6471  42.6472  42.8434  42.8434  43.2577  43.2578  43.8066  43.8066
    44.1019  44.1020  45.0598  45.0601

          k =-0.4325 0.2251 0.0000 (  5456 PWs)   bands (ev):

  -100.0415-100.0415-100.0251-100.0251 -55.6250 -55.6250 -55.6248 -55.6248
   -55.6206 -55.6206 -55.6204 -55.6204 -55.5306 -55.5306 -55.5293 -55.5293
   -47.3949 -47.3949 -47.3934 -47.3934 -47.0925 -47.0925 -47.0728 -47.0728
   -14.6191 -14.6191 -14.6092 -14.6092 -14.5878 -14.5878 -14.5553 -14.5553
   -14.4556 -14.4556 -14.4396 -14.4396 -14.2684 -14.2684 -14.1940 -14.1940
   -14.1616 -14.1616 -14.1070 -14.1070 -14.0790 -14.0790 -13.9925 -13.9925
     4.6581   4.6581   4.6610   4.6610   4.7334   4.7334   4.7356   4.7356
     4.7850   4.7850   4.7990   4.7990   4.8368   4.8368   4.8537   4.8537
     4.9116   4.9116   4.9385   4.9385  19.1927  19.1927  19.1932  19.1932
    23.0880  23.0880  23.4385  23.4385  23.7988  23.7988  24.2103  24.2103
    24.7385  24.7385  24.7847  24.7847  24.8970  24.8970  25.1912  25.1912
    25.3613  25.3613  25.3738  25.3738  25.7212  25.7212  25.7724  25.7724
    26.1307  26.1307  26.2936  26.2936  26.4295  26.4295  27.2714  27.2714
    27.3188  27.3188  27.6895  27.6895  27.7085  27.7085  28.0210  28.0210
    29.3536  29.3536  29.4237  29.4237  30.9682  30.9682  31.2019  31.2019
    34.2073  34.2073  36.3691  36.3691  37.2594  37.2594  37.3704  37.3704
    37.8814  37.8814  37.9595  37.9595  39.7545  39.7544  40.5720  40.5720
    40.9538  40.9538  41.0166  41.0167  41.5075  41.5075  42.1536  42.1535
    42.5918  42.5918  43.0507  43.0508  43.4172  43.4172  43.7080  43.7080
    44.0941  44.0940  44.4378  44.4380

          k =-0.4325 0.2251 0.1158 (  5448 PWs)   bands (ev):

  -100.0390-100.0390-100.0143-100.0143 -55.6268 -55.6268 -55.6228 -55.6228
   -55.6193 -55.6193 -55.6176 -55.6176 -55.5310 -55.5310 -55.5259 -55.5259
   -47.3964 -47.3964 -47.3890 -47.3890 -47.0927 -47.0927 -47.0706 -47.0706
   -14.6193 -14.6193 -14.6032 -14.6032 -14.5807 -14.5807 -14.5619 -14.5619
   -14.4576 -14.4576 -14.4380 -14.4380 -14.2674 -14.2674 -14.1847 -14.1847
   -14.1611 -14.1611 -14.1143 -14.1143 -14.0777 -14.0777 -13.9903 -13.9903
     4.6575   4.6575   4.6621   4.6621   4.7347   4.7347   4.7354   4.7354
     4.7868   4.7868   4.7998   4.7998   4.8373   4.8373   4.8495   4.8495
     4.9143   4.9143   4.9381   4.9381  19.1979  19.1979  19.2246  19.2246
    23.0369  23.0369  23.4316  23.4316  23.8713  23.8713  24.2431  24.2431
    24.5069  24.5069  24.6541  24.6541  24.8661  24.8661  25.0485  25.0485
    25.2282  25.2282  25.4181  25.4181  25.7991  25.7991  25.9406  25.9406
    26.1852  26.1852  26.3669  26.3669  26.7109  26.7109  27.0840  27.0840
    27.3853  27.3853  27.5094  27.5094  27.7197  27.7197  28.1824  28.1824
    29.3652  29.3652  29.5743  29.5743  30.7293  30.7293  32.0392  32.0392
    33.7644  33.7644  35.5932  35.5932  36.4419  36.4419  36.7933  36.7933
    38.7671  38.7671  38.8708  38.8708  40.1849  40.1849  40.6637  40.6638
    40.8084  40.8085  40.9608  40.9607  41.8143  41.8144  42.2666  42.2666
    42.4498  42.4499  42.7255  42.7254  43.4368  43.4368  43.7669  43.7671
    44.0307  44.0310  44.2960  44.2959

          k =-0.4325 0.2251-0.2316 (  5464 PWs)   bands (ev):

  -100.0602-100.0602-100.0245-100.0245 -55.6300 -55.6300 -55.6295 -55.6295
   -55.6226 -55.6226 -55.6210 -55.6210 -55.5324 -55.5324 -55.5234 -55.5234
   -47.3982 -47.3982 -47.3931 -47.3931 -47.0949 -47.0949 -47.0739 -47.0739
   -14.6277 -14.6277 -14.5880 -14.5880 -14.5848 -14.5848 -14.5760 -14.5760
   -14.4616 -14.4616 -14.4402 -14.4402 -14.2708 -14.2708 -14.1788 -14.1788
   -14.1656 -14.1656 -14.1192 -14.1192 -14.0848 -14.0848 -13.9897 -13.9897
     4.6554   4.6554   4.6613   4.6613   4.7349   4.7349   4.7358   4.7358
     4.7880   4.7880   4.8004   4.8004   4.8391   4.8391   4.8432   4.8432
     4.9157   4.9157   4.9373   4.9373  19.2027  19.2027  19.2499  19.2499
    22.9730  22.9730  23.4124  23.4124  24.0146  24.0146  24.2726  24.2726
    24.2886  24.2886  24.6793  24.6793  24.7575  24.7575  24.9042  24.9042
    25.0708  25.0708  25.4665  25.4665  25.7616  25.7616  26.1345  26.1345
    26.2762  26.2762  26.4286  26.4286  26.8292  26.8292  27.1445  27.1445
    27.2704  27.2704  27.5449  27.5449  27.6049  27.6049  28.3112  28.3112
    29.4105  29.4105  29.6245  29.6245  30.8536  30.8536  32.7604  32.7604
    33.7075  33.7075  34.1407  34.1407  36.2463  36.2463  36.5655  36.5655
    38.9817  38.9817  39.7611  39.7611  40.4667  40.4667  40.4699  40.4699
    40.8867  40.8868  41.3856  41.3857  41.4504  41.4504  42.2568  42.2569
    42.4363  42.4363  42.9839  42.9839  43.1854  43.1854  43.6347  43.6348
    43.8719  43.8721  44.2301  44.2297

     the Fermi energy is    38.1739 ev

!    total energy              =   -3892.97125078 Ry
     Harris-Foulkes estimate   =   -3892.97131253 Ry
     estimated scf accuracy    <       0.00007481 Ry

     The total energy is the sum of the following terms:

     one-electron contribution =    -668.32721849 Ry
     hartree contribution      =     554.24600779 Ry
     xc contribution           =    -333.53687029 Ry
     ewald contribution        =   -3445.03882055 Ry
     smearing contrib. (-TS)   =      -0.31434925 Ry

     convergence has been achieved in  10 iterations

     Forces acting on atoms (Ry/au):

     atom    1 type  1   force =     0.00000000   -0.02799398    0.01087499
     atom    2 type  1   force =     0.00000000    0.02799398   -0.01087499
     atom    3 type  1   force =     0.00000000   -0.02799398   -0.01087499
     atom    4 type  1   force =     0.00000000    0.02799398    0.01087499
     atom    5 type  1   force =     0.00000000    0.05257777   -0.11368240
     atom    6 type  1   force =     0.00000000   -0.05257777    0.11368240
     atom    7 type  1   force =     0.00000000    0.05257777    0.11368240
     atom    8 type  1   force =     0.00000000   -0.05257777   -0.11368240
     atom    9 type  2   force =     0.00000000   -0.09372568    0.03829927
     atom   10 type  2   force =     0.00000000    0.09372568   -0.03829927
     atom   11 type  2   force =     0.00000000   -0.09372568   -0.03829927
     atom   12 type  2   force =     0.00000000    0.09372568    0.03829927

     Total force =     0.327667     Total SCF correction =     0.000000


     entering subroutine stress ...

          total   stress  (Ry/bohr**3)                   (kbar)     P= 1498.59
   0.01139975   0.00000000   0.00000000       1676.96      0.00      0.00
   0.00000000   0.00927329   0.00000000          0.00   1364.15      0.00
   0.00000000   0.00000000   0.00988854          0.00      0.00   1454.65


     Writing output data file Prototype-La-oP12-Co2Si.save
 
     init_run     :      8.73s CPU     13.79s WALL (       2 calls)
     electrons    :   3041.99s CPU   4515.08s WALL (       5 calls)
     update_pot   :      2.76s CPU      4.51s WALL (       3 calls)
     forces       :      6.28s CPU      9.37s WALL (       5 calls)
     stress       :     17.81s CPU     26.02s WALL (       5 calls)

     Called by init_run:
     wfcinit      :      7.54s CPU     11.74s WALL (       2 calls)
     potinit      :      0.48s CPU      0.63s WALL (       2 calls)

     Called by electrons:
     c_bands      :   2962.44s CPU   4374.04s WALL (      45 calls)
     sum_band     :     76.92s CPU    124.09s WALL (      45 calls)
     v_of_rho     :      0.36s CPU      0.58s WALL (      50 calls)
     mix_rho      :      0.29s CPU      0.41s WALL (      45 calls)

     Called by c_bands:
     init_us_2    :      1.29s CPU      2.04s WALL (    1224 calls)
     ccgdiagg     :   2740.17s CPU   4026.32s WALL (     646 calls)
     wfcrot       :    228.37s CPU    355.96s WALL (     658 calls)

     Called by *cgdiagg:
     h_psi        :   1642.81s CPU   2452.02s WALL (  555638 calls)
     cdiaghg      :     13.73s CPU     19.25s WALL (     658 calls)

     Called by h_psi:
     add_vuspsi   :    102.93s CPU    143.63s WALL (  555638 calls)

     General routines
     calbec       :    743.32s CPU   1065.25s WALL ( 1110738 calls)
     fft          :      1.15s CPU      1.86s WALL (     223 calls)
     fftw         :   1135.87s CPU   1719.30s WALL ( 1399496 calls)
     davcio       :      0.82s CPU      2.76s WALL (    1764 calls)
 
     Parallel routines
     fft_scatter  :    931.98s CPU   1409.26s WALL ( 1399719 calls)
 
     PWSCF        :     0h51m CPU        1h16m WALL

 
   This run was terminated on:   3:34:32  23Mar2018            

=------------------------------------------------------------------------------=
   JOB DONE.
=------------------------------------------------------------------------------=
