
     Program PWSCF v.5.0.2 starts on 22Mar2018 at 22:42:43 

     This program is part of the open-source Quantum ESPRESSO suite
     for quantum simulation of materials; please cite
         "P. Giannozzi et al., J. Phys.:Condens. Matter 21 395502 (2009);
          URL http://www.quantum-espresso.org", 
     in publications or presentations arising from this work. More details at
     http://www.quantum-espresso.org/quote.php

     Parallel version (MPI), running on     4 processors
     R & G space division:  proc/nbgrp/npool/nimage =       4

     Current dimensions of program PWSCF are:
     Max number of different atomic species (ntypx) = 10
     Max number of k-points (npk) =  40000
     Max angular momentum in pseudopotentials (lmaxx) =  3
     Waiting for input...
     Reading input from standard input

     Subspace diagonalization in iterative solution of the eigenvalue problem:
     a serial algorithm will be used

 
     Parallelization info
     --------------------
     sticks:   dense  smooth     PW     G-vecs:    dense   smooth      PW
     Min         267     267     77                11587    11587    1762
     Max         268     268     79                11596    11596    1765
     Sum        1069    1069    313                46361    46361    7055
 


     bravais-lattice index     =            0
     lattice parameter (alat)  =       9.9235  a.u.
     unit-cell volume          =    1361.0366 (a.u.)^3
     number of atoms/cell      =           12
     number of atomic types    =            2
     number of electrons       =       248.00
     number of Kohn-Sham states=          149
     kinetic-energy cutoff     =      40.0000  Ry
     charge density cutoff     =     160.0000  Ry
     convergence threshold     =      1.0E-04
     mixing beta               =       0.7000
     number of iterations used =            8  plain     mixing
     Exchange-correlation      = SLA-PZ-NOGX-NOGC ( 1 1 0 0 0)
     EXX-fraction              =        0.00
     nstep                     =           50


     celldm(1)=   9.923489  celldm(2)=   0.000000  celldm(3)=   0.000000
     celldm(4)=   0.000000  celldm(5)=   0.000000  celldm(6)=   0.000000

     crystal axes: (cart. coord. in units of alat)
               a(1) = (   1.000000   0.000000   0.000000 )  
               a(2) = (  -0.500000   0.866025   0.000000 )  
               a(3) = (   0.000000   0.000000   1.608222 )  

     reciprocal axes: (cart. coord. in units 2 pi/alat)
               b(1) = (  1.000000  0.577350  0.000000 )  
               b(2) = (  0.000000  1.154701  0.000000 )  
               b(3) = (  0.000000  0.000000  0.621805 )  


     PseudoPot. # 1 for Er read from file:
     /home/cwx6513/pp.La/Er.UPF
     MD5 check sum: e152ae21b84514339d8526f066caf99b
     Pseudo is Norm-conserving, Zval = 22.0
     Generated in analytical, separable form
     Using radial grid of 1267 points,  6 beta functions with: 
                l(1) =   0
                l(2) =   0
                l(3) =   1
                l(4) =   1
                l(5) =   2
                l(6) =   3

     PseudoPot. # 2 for Dy read from file:
     /home/cwx6513/pp.La/Dy.UPF
     MD5 check sum: 9597327bec62616a94a14d07f3fd9936
     Pseudo is Norm-conserving, Zval = 20.0
     Generated in analytical, separable form
     Using radial grid of 1265 points,  6 beta functions with: 
                l(1) =   0
                l(2) =   0
                l(3) =   1
                l(4) =   1
                l(5) =   2
                l(6) =   3

     atomic species   valence    mass     pseudopotential
        Mg            22.00    24.30500     Er( 1.00)
        Zn            20.00    65.39000     Dy( 1.00)

     24 Sym. Ops., with inversion, found (12 have fractional translation)



   Cartesian axes

     site n.     atom                  positions (alat units)
         1           Mg  tau(   1) = (  -0.0000005   0.5773506   0.1003820  )
         2           Mg  tau(   2) = (   0.5000005   0.2886748   0.9044931  )
         3           Mg  tau(   3) = (   0.5000005   0.2886748   1.5078402  )
         4           Mg  tau(   4) = (  -0.0000005   0.5773506   0.7037291  )
         5           Zn  tau(   5) = (   0.0000000   0.0000000   0.0000000  )
         6           Zn  tau(   6) = (   0.0000000   0.0000000   0.8041111  )
         7           Zn  tau(   7) = (   0.0000000   0.2950739   1.2061667  )
         8           Zn  tau(   8) = (   0.7444585   0.1475370   0.4020556  )
         9           Zn  tau(   9) = (   0.2555415   0.1475370   0.4020556  )
        10           Zn  tau(  10) = (   0.2444585   0.7184884   1.2061667  )
        11           Zn  tau(  11) = (  -0.2444585   0.7184884   1.2061667  )
        12           Zn  tau(  12) = (   0.5000000   0.5709515   0.4020556  )

     number of k points=    12  gaussian smearing, width (Ry)=  0.1000
                       cart. coord. in units 2pi/alat
        k(    1) = (   0.0000000   0.0000000   0.0000000), wk =   0.0833333
        k(    2) = (   0.0000000   0.0000000   0.1554512), wk =   0.1666667
        k(    3) = (   0.0000000   0.0000000  -0.3109023), wk =   0.0833333
        k(    4) = (   0.0000000   0.3849002   0.0000000), wk =   0.1666667
        k(    5) = (   0.0000000   0.3849002   0.1554512), wk =   0.3333333
        k(    6) = (   0.0000000   0.3849002  -0.3109023), wk =   0.1666667
        k(    7) = (  -0.5000000  -0.2886751   0.0000000), wk =   0.0833333
        k(    8) = (  -0.5000000  -0.2886751   0.1554512), wk =   0.1666667
        k(    9) = (  -0.5000000  -0.2886751  -0.3109023), wk =   0.0833333
        k(   10) = (  -0.5000000   0.0962250   0.0000000), wk =   0.1666667
        k(   11) = (  -0.5000000   0.0962250   0.1554512), wk =   0.3333333
        k(   12) = (  -0.5000000   0.0962250  -0.3109023), wk =   0.1666667

     Dense  grid:    46361 G-vectors     FFT dimensions: (  40,  40,  72)

     Largest allocated arrays     est. size (Mb)     dimensions
        Kohn-Sham Wavefunctions         3.36 Mb     (   1478,  149)
        NL pseudopotentials             5.41 Mb     (   1478,  240)
        Each V/rho on FFT grid          0.44 Mb     (  28800)
        Each G-vector array             0.09 Mb     (  11589)
        G-vector shells                 0.09 Mb     (  11589)
     Largest temporary arrays     est. size (Mb)     dimensions
        Each subspace H/S matrix        0.34 Mb     ( 149, 149)
        Each <psi_i|beta_j> matrix      0.55 Mb     (    240,  149)
        Arrays for rho mixing           3.52 Mb     (  28800,   8)

     Initial potential from superposition of free atoms

     Starting from uniform charge
     Starting wfc are    0 randomized atomic wfcs

     total cpu time spent up to now is        4.8 secs

     Self-consistent Calculation

     iteration #  1     ecut=    40.00 Ry     beta=0.70
     CG style diagonalization
     ethr =  1.00E-02,  avg # of iterations = 18.4

     total cpu time spent up to now is      116.3 secs

     total energy              =   -3081.10208650 Ry
     Harris-Foulkes estimate   =   -4106.61357523 Ry
     estimated scf accuracy    <    1306.71115202 Ry

     iteration #  2     ecut=    40.00 Ry     beta=0.70
     CG style diagonalization
     ethr =  1.00E-02,  avg # of iterations =  9.0

     total cpu time spent up to now is      172.1 secs

     total energy              =   -3357.81811978 Ry
     Harris-Foulkes estimate   =   -3437.47206631 Ry
     estimated scf accuracy    <     111.77275469 Ry

     iteration #  3     ecut=    40.00 Ry     beta=0.70
     CG style diagonalization
     ethr =  1.00E-02,  avg # of iterations =  6.3

     total cpu time spent up to now is      209.9 secs

     total energy              =   -3388.42452916 Ry
     Harris-Foulkes estimate   =   -3414.28993954 Ry
     estimated scf accuracy    <      61.25678077 Ry

     iteration #  4     ecut=    40.00 Ry     beta=0.70
     CG style diagonalization
     ethr =  1.00E-02,  avg # of iterations =  3.7

     total cpu time spent up to now is      232.3 secs

     total energy              =   -3397.26828350 Ry
     Harris-Foulkes estimate   =   -3399.03620785 Ry
     estimated scf accuracy    <       2.52123430 Ry

     iteration #  5     ecut=    40.00 Ry     beta=0.70
     CG style diagonalization
     ethr =  1.02E-03,  avg # of iterations =  4.1

     total cpu time spent up to now is      256.7 secs

     total energy              =   -3398.00833811 Ry
     Harris-Foulkes estimate   =   -3398.54743484 Ry
     estimated scf accuracy    <       1.14180742 Ry

     iteration #  6     ecut=    40.00 Ry     beta=0.70
     CG style diagonalization
     ethr =  4.60E-04,  avg # of iterations =  3.6

     total cpu time spent up to now is      277.7 secs

     total energy              =   -3398.16227093 Ry
     Harris-Foulkes estimate   =   -3398.23690506 Ry
     estimated scf accuracy    <       0.15518492 Ry

     iteration #  7     ecut=    40.00 Ry     beta=0.70
     CG style diagonalization
     c_bands:  1 eigenvalues not converged
     c_bands:  1 eigenvalues not converged
     ethr =  6.26E-05,  avg # of iterations =  3.9

     total cpu time spent up to now is      300.5 secs

     total energy              =   -3398.19007992 Ry
     Harris-Foulkes estimate   =   -3398.19412377 Ry
     estimated scf accuracy    <       0.00715309 Ry

     iteration #  8     ecut=    40.00 Ry     beta=0.70
     CG style diagonalization
     c_bands:  1 eigenvalues not converged
     c_bands:  1 eigenvalues not converged
     c_bands:  1 eigenvalues not converged
     ethr =  2.88E-06,  avg # of iterations =  4.6

     total cpu time spent up to now is      327.4 secs

     total energy              =   -3398.19244110 Ry
     Harris-Foulkes estimate   =   -3398.19333095 Ry
     estimated scf accuracy    <       0.00133557 Ry

     iteration #  9     ecut=    40.00 Ry     beta=0.70
     CG style diagonalization
     c_bands:  1 eigenvalues not converged
     ethr =  5.39E-07,  avg # of iterations =  3.8

     total cpu time spent up to now is      348.9 secs

     total energy              =   -3398.19286597 Ry
     Harris-Foulkes estimate   =   -3398.19303579 Ry
     estimated scf accuracy    <       0.00034252 Ry

     iteration # 10     ecut=    40.00 Ry     beta=0.70
     CG style diagonalization
     ethr =  1.38E-07,  avg # of iterations =  3.5

     total cpu time spent up to now is      368.7 secs

     End of self-consistent calculation

          k = 0.0000 0.0000 0.0000 (  5769 PWs)   bands (ev):

   -68.0726 -68.0622 -68.0559 -68.0252 -51.4450 -51.4056 -51.2901 -51.2417
   -51.2417 -51.2360 -51.2360 -51.2227 -30.0923 -30.0790 -30.0790 -30.0767
   -30.0569 -30.0569 -30.0410 -30.0229 -30.0229 -30.0150 -30.0144 -30.0144
   -19.6600 -19.4233 -19.0587 -18.7280 -18.7280 -18.6760 -18.6759 -18.5774
   -18.5774 -18.3966 -18.3650 -18.2308 -18.2307 -18.2118 -18.2118 -17.8912
   -17.8912 -17.8894 -17.8870 -17.8752 -17.8631 -17.8630 -17.8316 -17.8316
    16.0382  16.0382  16.0412  16.1171  16.1186  16.1186  16.3262  16.3262
    16.3614  16.3615  16.5887  16.6891  16.6891  16.7188  16.7900  16.7900
    16.8720  16.8720  16.9131  16.9131  17.1357  17.8350  18.1152  18.2691
    19.4160  19.4160  19.5635  19.5635  19.5837  19.5838  19.8299  19.9865
    20.4437  20.4438  20.6158  21.1887  21.4412  21.4412  21.7153  21.7153
    22.3690  22.3690  22.5351  23.1169  23.3074  23.3074  23.8932  23.9762
    24.0994  24.1832  24.1832  24.2693  24.2693  24.4018  24.4018  24.5161
    24.5161  25.7588  25.7588  26.2286  26.2286  27.2659  27.2685  28.4024
    28.4533  29.0838  29.6019  29.6020  29.9277  30.1048  30.1048  31.0759
    31.8490  31.8492  32.2914  33.0921  33.3399  33.3400  33.7378  34.4281
    34.4281  36.3455  36.3456  37.0686  37.4384  37.9192  37.9193  37.9261
    37.9261  37.9794  38.4169  38.7797  38.7797  39.0281  39.2883  39.2884
    39.4402  39.4403  40.1919  40.6260  40.9464

          k = 0.0000 0.0000 0.1555 (  5780 PWs)   bands (ev):

   -68.0758 -68.0723 -68.0514 -68.0295 -51.4388 -51.4119 -51.2742 -51.2437
   -51.2437 -51.2396 -51.2396 -51.2390 -30.0838 -30.0825 -30.0701 -30.0701
   -30.0689 -30.0689 -30.0490 -30.0240 -30.0240 -30.0193 -30.0179 -30.0179
   -19.6370 -19.4752 -18.9824 -18.7272 -18.7272 -18.6920 -18.6919 -18.5776
   -18.5419 -18.5419 -18.3496 -18.3496 -18.1910 -18.1059 -18.1059 -17.9201
   -17.9160 -17.9160 -17.8908 -17.8851 -17.8579 -17.8578 -17.8383 -17.8383
    16.0125  16.0736  16.0736  16.1173  16.1437  16.1437  16.2782  16.2783
    16.3161  16.3161  16.5960  16.6435  16.7255  16.7255  16.8057  16.8057
    16.8670  16.8670  16.8874  16.8874  17.3091  17.6261  18.4405  18.4481
    19.4184  19.4185  19.4588  19.4588  19.5831  19.7309  19.8471  19.8471
    20.4891  20.4891  20.6127  20.7920  21.2283  21.2283  21.2787  21.2787
    22.7228  22.8744  22.8744  23.4260  23.4260  23.4954  23.9935  24.0806
    24.1694  24.1694  24.2125  24.2125  24.3666  24.4231  24.4232  24.5097
    24.5098  25.7732  25.7733  26.1547  26.1547  27.2662  27.2679  27.8599
    28.3558  28.9102  29.4082  29.4082  29.6683  29.8227  29.8227  30.8526
    32.3213  32.3215  32.6404  33.2838  33.4128  33.4129  34.6005  34.7137
    34.7138  36.2957  36.3285  36.3285  37.3861  37.3862  37.7267  37.7268
    37.8598  37.9887  38.6558  39.0160  39.0161  39.2023  39.2024  39.4188
    39.7832  39.7833  39.8530  40.2944  40.8803

          k = 0.0000 0.0000-0.3109 (  5780 PWs)   bands (ev):

   -68.0702 -68.0701 -68.0429 -68.0428 -51.4339 -51.4338 -51.2621 -51.2621
   -51.2340 -51.2340 -51.2339 -51.2339 -30.0834 -30.0833 -30.0673 -30.0672
   -30.0672 -30.0672 -30.0483 -30.0482 -30.0155 -30.0154 -30.0154 -30.0154
   -19.5642 -19.5642 -18.8179 -18.8179 -18.7071 -18.7071 -18.7071 -18.7071
   -18.4515 -18.4515 -18.4515 -18.4515 -18.0369 -18.0368 -17.9959 -17.9959
   -17.9959 -17.9959 -17.8801 -17.8801 -17.8498 -17.8498 -17.8498 -17.8498
    16.0433  16.0434  16.1587  16.1587  16.1587  16.1587  16.2324  16.2324
    16.2324  16.2325  16.6117  16.6117  16.7961  16.7961  16.7961  16.7961
    16.8561  16.8561  16.8561  16.8561  17.4794  17.4794  18.8113  18.8113
    19.2109  19.2109  19.4263  19.4263  19.4263  19.4263  20.2840  20.2840
    20.2841  20.2841  20.6176  20.6176  21.0195  21.0195  21.0195  21.0195
    23.1471  23.1471  23.3815  23.3815  23.3815  23.3815  24.0371  24.0371
    24.1460  24.1460  24.1460  24.1460  24.4742  24.4742  24.4742  24.4742
    25.9317  25.9317  25.9317  25.9318  26.1462  26.1462  27.2672  27.2672
    28.3855  28.3855  29.4143  29.4143  29.4143  29.4143  30.3470  30.3470
    33.0661  33.0661  33.0661  33.0661  33.1347  33.1347  35.6552  35.6552
    35.6553  35.6553  35.6591  35.6591  37.2640  37.2641  37.2641  37.2641
    38.0584  38.0584  39.1828  39.1828  39.1829  39.1829  39.3314  39.3314
    39.5803  39.5804  40.5599  40.5599  40.5600

          k = 0.0000 0.3849 0.0000 (  5787 PWs)   bands (ev):

   -68.0710 -68.0666 -68.0510 -68.0490 -51.4251 -51.3686 -51.3027 -51.2912
   -51.2642 -51.2405 -51.2342 -51.2119 -30.0848 -30.0839 -30.0758 -30.0734
   -30.0698 -30.0646 -30.0424 -30.0334 -30.0294 -30.0251 -30.0196 -30.0130
   -19.4167 -19.1967 -19.0559 -18.7677 -18.6661 -18.6079 -18.5742 -18.5712
   -18.4963 -18.4020 -18.3307 -18.2833 -18.2487 -18.2455 -18.2243 -18.1377
   -18.0781 -18.0266 -18.0240 -17.9138 -17.8898 -17.8601 -17.8579 -17.8479
    15.9218  16.0008  16.0473  16.1646  16.1967  16.2050  16.2519  16.2988
    16.3721  16.4415  16.4868  16.5371  16.5502  16.7281  16.7329  16.7848
    16.8163  16.9139  16.9376  16.9699  17.9844  18.7028  18.7576  19.2297
    19.3025  19.6219  19.8911  20.0926  20.1813  20.2427  20.6661  20.6669
    20.8683  20.9009  21.0459  21.2597  21.3871  21.5765  21.6784  21.7143
    22.0711  22.0885  22.4540  22.5654  22.8124  22.9552  22.9956  23.0833
    23.4598  23.5940  23.7742  24.0618  24.0699  24.2174  24.2732  24.2783
    24.5137  24.6686  24.8448  24.9417  25.2807  25.5699  25.8646  26.5364
    27.5385  27.7569  28.0559  29.1062  29.3973  29.7861  30.1202  31.8014
    32.4923  32.6721  33.6942  34.5767  35.2617  35.2853  35.4105  36.2776
    36.5128  36.6047  36.8378  37.1313  37.5055  38.0087  38.1345  38.1876
    38.2286  38.3875  38.6911  39.1846  39.6573  39.7428  39.7635  39.9133
    40.4761  40.6945  40.9364  41.4232  41.6240

          k = 0.0000 0.3849 0.1555 (  5804 PWs)   bands (ev):

   -68.0782 -68.0717 -68.0573 -68.0536 -51.4200 -51.3820 -51.3032 -51.2948
   -51.2579 -51.2453 -51.2395 -51.2172 -30.0918 -30.0855 -30.0778 -30.0777
   -30.0718 -30.0672 -30.0486 -30.0452 -30.0289 -30.0262 -30.0224 -30.0141
   -19.4037 -19.2688 -18.9705 -18.7847 -18.6670 -18.5781 -18.5727 -18.5691
   -18.5121 -18.4839 -18.3935 -18.3413 -18.2505 -18.2167 -18.1448 -18.0918
   -18.0806 -18.0101 -17.9942 -17.9385 -17.9154 -17.8720 -17.8644 -17.8602
    15.9475  16.0205  16.0708  16.1304  16.1604  16.1711  16.2665  16.2825
    16.3697  16.4084  16.4790  16.5781  16.6108  16.7058  16.7277  16.8057
    16.8527  16.8837  16.9037  16.9674  18.0508  18.4105  19.0720  19.2640
    19.4601  19.6590  19.9909  20.1169  20.1439  20.2307  20.3820  20.6557
    20.7181  20.7187  21.0132  21.0429  21.3891  21.4501  21.6980  21.7924
    21.9094  22.3956  22.5646  22.8042  22.8354  23.0217  23.0738  23.2962
    23.5303  23.5559  23.7923  24.0396  24.1031  24.1258  24.2762  24.3305
    24.3500  24.6380  24.7786  24.8590  25.1099  25.8718  25.8777  26.3579
    26.9570  28.0716  28.7793  29.1620  29.2173  29.5862  30.0324  31.4543
    32.5333  33.2736  33.5231  34.2819  34.4306  35.3396  36.0987  36.2828
    36.3691  36.6151  36.9133  37.1600  37.5356  37.5793  38.3542  38.4406
    38.5720  38.8758  39.0708  39.3049  39.3947  39.5814  39.7247  40.0739
    40.5123  40.5337  40.7856  41.1669  41.3466

          k = 0.0000 0.3849-0.3109 (  5816 PWs)   bands (ev):

   -68.0772 -68.0771 -68.0620 -68.0619 -51.4026 -51.4026 -51.3037 -51.3037
   -51.2457 -51.2457 -51.2360 -51.2360 -30.0881 -30.0881 -30.0816 -30.0815
   -30.0712 -30.0712 -30.0524 -30.0523 -30.0281 -30.0281 -30.0223 -30.0223
   -19.3548 -19.3548 -18.8568 -18.8568 -18.6253 -18.6253 -18.5726 -18.5726
   -18.4982 -18.4982 -18.4314 -18.4314 -18.2170 -18.2170 -18.0974 -18.0974
   -18.0041 -18.0040 -17.9679 -17.9679 -17.9284 -17.9284 -17.8604 -17.8604
    16.0240  16.0240  16.0846  16.0846  16.1228  16.1228  16.2932  16.2933
    16.3425  16.3425  16.5869  16.5870  16.6455  16.6455  16.7625  16.7625
    16.8830  16.8830  16.9191  16.9191  18.1935  18.1936  19.2722  19.2722
    19.8047  19.8047  19.9328  19.9328  20.2063  20.2063  20.2838  20.2838
    20.6766  20.6766  20.8885  20.8885  21.3977  21.3977  21.6680  21.6680
    22.2297  22.2297  22.8269  22.8269  23.1036  23.1036  23.3348  23.3348
    23.5133  23.5133  23.9915  23.9916  24.0343  24.0343  24.2701  24.2702
    24.3741  24.3741  24.8558  24.8558  25.2683  25.2683  26.0295  26.0295
    28.0282  28.0282  28.5833  28.5833  29.3211  29.3211  30.9118  30.9118
    32.6785  32.6785  34.3081  34.3081  34.5443  34.5443  35.8593  35.8593
    36.4742  36.4742  37.3457  37.3457  38.1053  38.1053  38.2150  38.2150
    39.0652  39.0653  39.1128  39.1128  39.4288  39.4289  40.0242  40.0243
    40.2130  40.2131  40.9909  40.9909  41.6099

          k =-0.5000-0.2887 0.0000 (  5800 PWs)   bands (ev):

   -68.0749 -68.0697 -68.0639 -68.0459 -51.4044 -51.3580 -51.3227 -51.2912
   -51.2827 -51.2495 -51.2351 -51.2106 -30.0953 -30.0809 -30.0767 -30.0739
   -30.0655 -30.0600 -30.0555 -30.0465 -30.0303 -30.0282 -30.0257 -30.0096
   -19.3071 -19.0935 -19.0501 -18.8528 -18.6177 -18.6050 -18.5718 -18.4812
   -18.4310 -18.3846 -18.3472 -18.3304 -18.2872 -18.2712 -18.2348 -18.2139
   -18.2017 -18.0833 -18.0588 -17.9296 -17.8910 -17.8602 -17.8583 -17.8355
    15.9548  15.9989  16.0799  16.1028  16.1435  16.1587  16.1903  16.3915
    16.3929  16.4441  16.4479  16.4703  16.4971  16.7468  16.7888  16.8104
    16.8448  16.8765  16.9225  17.0086  18.3336  18.8650  19.0547  19.4758
    19.6589  19.9406  20.2693  20.2948  20.3517  20.3746  20.6954  20.8166
    20.9635  21.0635  21.1742  21.5243  21.7204  21.7444  21.8029  21.9862
    22.0200  22.0596  22.1411  22.4051  22.4566  22.7348  22.7482  22.8742
    23.0298  23.2367  23.3126  23.4990  23.6109  23.9864  24.1371  24.2073
    24.2569  24.2810  24.4436  24.6683  25.0621  25.4181  25.9146  26.5144
    26.6369  27.1663  27.9282  29.0853  29.1701  29.4066  30.6389  32.6408
    32.6798  33.1802  34.2999  34.7826  35.4209  35.9331  36.0385  36.1304
    36.9453  37.2713  37.2767  37.4075  37.4679  38.0995  38.2522  38.2921
    38.3017  38.5658  38.5707  38.7198  38.8534  38.8836  39.9406  40.2478
    41.2630  41.6485  41.6555  41.7081  42.0898

          k =-0.5000-0.2887 0.1555 (  5822 PWs)   bands (ev):

   -68.0833 -68.0816 -68.0615 -68.0590 -51.4016 -51.3631 -51.3264 -51.3123
   -51.2622 -51.2525 -51.2435 -51.2209 -30.0916 -30.0907 -30.0823 -30.0734
   -30.0732 -30.0725 -30.0641 -30.0543 -30.0322 -30.0315 -30.0226 -30.0155
   -19.2950 -19.1746 -18.9690 -18.8591 -18.6301 -18.5670 -18.5603 -18.4965
   -18.4784 -18.4230 -18.3862 -18.3300 -18.3266 -18.3042 -18.2226 -18.2087
   -18.1287 -18.0500 -18.0073 -17.9543 -17.9154 -17.8658 -17.8622 -17.8620
    15.9903  15.9989  16.0992  16.1056  16.1352  16.1384  16.2369  16.2525
    16.2594  16.4267  16.5459  16.5885  16.6102  16.7327  16.7371  16.8013
    16.8583  16.8722  16.9252  16.9439  18.3803  18.6797  19.2914  19.5253
    19.6526  19.8935  20.2234  20.2971  20.3124  20.3139  20.7465  20.7694
    20.9554  21.0236  21.1491  21.4768  21.5932  21.8324  21.8392  22.0006
    22.0036  22.1404  22.2738  22.2782  22.5282  22.6579  22.9378  23.0517
    23.2679  23.2902  23.2968  23.5658  23.6318  23.9128  24.0982  24.1069
    24.2318  24.2653  24.3508  24.6101  24.6552  24.7045  25.9184  26.3226
    27.8028  27.8810  27.9904  28.7759  29.1326  29.3445  30.8512  31.4149
    32.3057  33.6712  34.4162  34.5420  35.3804  36.1547  36.3500  36.3657
    36.5806  37.0505  37.0582  37.3293  37.6290  37.9047  37.9288  38.0282
    38.8540  38.9509  38.9773  39.0465  39.2473  39.6240  39.8148  40.3004
    40.7764  41.0524  41.2037  41.6721  41.7635

          k =-0.5000-0.2887-0.3109 (  5804 PWs)   bands (ev):

   -68.0709 -68.0707 -68.0596 -68.0595 -51.3780 -51.3780 -51.3173 -51.3173
   -51.2458 -51.2458 -51.2394 -51.2394 -30.0859 -30.0858 -30.0756 -30.0756
   -30.0643 -30.0642 -30.0491 -30.0490 -30.0292 -30.0291 -30.0250 -30.0250
   -19.2503 -19.2502 -18.8929 -18.8929 -18.5767 -18.5767 -18.5302 -18.5302
   -18.4879 -18.4879 -18.3589 -18.3589 -18.3220 -18.3219 -18.2107 -18.2107
   -18.0220 -18.0220 -17.9773 -17.9773 -17.9148 -17.9148 -17.8624 -17.8623
    16.0473  16.0473  16.0776  16.0777  16.1304  16.1304  16.1731  16.1731
    16.3477  16.3478  16.6332  16.6333  16.7125  16.7126  16.7597  16.7597
    16.8661  16.8661  16.8760  16.8760  18.4985  18.4985  19.6134  19.6134
    19.6723  19.6723  20.1088  20.1088  20.3288  20.3288  20.8308  20.8308
    20.9016  20.9016  21.4536  21.4536  21.5201  21.5201  21.9039  21.9039
    22.0727  22.0727  22.4214  22.4214  22.7003  22.7003  23.1297  23.1297
    23.2439  23.2439  23.6488  23.6489  23.7283  23.7283  23.8804  23.8805
    24.1243  24.1243  24.4265  24.4265  24.4776  24.4777  26.0238  26.0238
    28.1848  28.1848  29.2136  29.2137  29.2363  29.2363  29.9869  29.9870
    33.0053  33.0053  34.8522  34.8522  35.1414  35.1414  36.7889  36.7889
    37.0022  37.0022  37.2510  37.2510  37.5150  37.5150  37.8708  37.8708
    39.1592  39.1592  39.2409  39.2409  39.6591  39.6591  40.3528  40.3528
    40.6394  40.6394  41.1378  41.1379  42.0319

          k =-0.5000 0.0962 0.0000 (  5827 PWs)   bands (ev):

   -68.0844 -68.0736 -68.0727 -68.0605 -51.4104 -51.3560 -51.3303 -51.2980
   -51.2849 -51.2525 -51.2439 -51.2106 -30.0971 -30.0916 -30.0847 -30.0799
   -30.0782 -30.0645 -30.0550 -30.0437 -30.0369 -30.0284 -30.0280 -30.0254
   -19.2977 -19.0924 -19.0506 -18.8622 -18.7025 -18.6162 -18.5888 -18.4533
   -18.4316 -18.4147 -18.3217 -18.3188 -18.2862 -18.2618 -18.2493 -18.2234
   -18.1126 -18.0673 -18.0314 -17.9371 -17.9277 -17.9201 -17.8801 -17.8438
    15.9488  15.9866  16.0748  16.0863  16.1579  16.1957  16.2595  16.3707
    16.3963  16.4320  16.4499  16.4758  16.4971  16.6246  16.6348  16.7602
    16.9388  16.9476  16.9821  17.0566  18.4553  18.9243  19.3000  19.3950
    19.6606  19.8875  19.9947  20.0536  20.1398  20.5349  20.8132  20.9056
    20.9927  21.1231  21.1931  21.3451  21.5555  21.5681  21.7824  21.9289
    21.9893  22.0931  22.2310  22.2515  22.5269  22.6741  22.6994  22.8334
    23.1843  23.2885  23.4528  23.6404  23.7111  23.7847  23.9731  24.1881
    24.4566  24.4642  24.8856  25.0284  25.3130  25.3390  26.1217  26.1236
    26.5743  27.1426  27.2844  28.3252  28.4493  30.7029  31.5392  32.5567
    32.9443  33.3108  34.0332  34.6995  34.7215  35.1836  35.4074  36.5743
    36.6191  36.6969  37.1776  37.2137  37.7220  37.7731  38.2644  38.5679
    38.5876  38.9149  39.0010  39.3276  39.5469  39.7117  40.2442  40.3380
    40.9025  40.9895  41.3271  41.5541  41.8738

          k =-0.5000 0.0962 0.1555 (  5825 PWs)   bands (ev):

   -68.0842 -68.0748 -68.0669 -68.0625 -51.4033 -51.3663 -51.3268 -51.3147
   -51.2640 -51.2477 -51.2433 -51.2183 -30.0932 -30.0891 -30.0840 -30.0820
   -30.0761 -30.0656 -30.0530 -30.0519 -30.0335 -30.0296 -30.0263 -30.0240
   -19.2822 -19.1653 -18.9753 -18.8731 -18.6816 -18.5907 -18.5706 -18.4909
   -18.4617 -18.4161 -18.4032 -18.3729 -18.2891 -18.2743 -18.1802 -18.1573
   -18.0928 -18.0431 -18.0024 -17.9473 -17.9391 -17.9202 -17.8929 -17.8612
    15.9758  16.0050  16.0526  16.0864  16.1678  16.1864  16.2447  16.2935
    16.3429  16.4237  16.4940  16.5511  16.5615  16.5742  16.7186  16.7302
    16.9048  16.9453  16.9661  17.0401  18.4980  18.7824  19.4277  19.4573
    19.6861  19.9291  20.0292  20.1170  20.1796  20.4781  20.6029  20.7606
    20.8563  21.0217  21.2506  21.3805  21.4997  21.6682  21.7713  21.8285
    21.9151  22.1573  22.2547  22.4785  22.5824  22.8302  22.8742  22.9824
    23.1213  23.2916  23.4757  23.6744  23.7204  23.8861  23.9895  24.1708
    24.3542  24.4230  24.6512  24.7739  24.9876  25.4099  25.7679  26.0175
    26.6680  27.0997  27.6342  28.6886  29.7798  30.6012  30.8995  31.9337
    32.4775  33.1313  33.6348  34.1763  34.8471  35.7336  36.0973  36.5591
    36.7792  36.8113  37.2085  37.4641  37.7001  37.9626  38.2058  38.4431
    38.8478  38.9724  39.1233  39.2441  39.6735  39.9713  40.3543  40.4230
    40.5262  41.0025  41.2581  41.4410  41.5878

          k =-0.5000 0.0962-0.3109 (  5824 PWs)   bands (ev):

   -68.0771 -68.0770 -68.0668 -68.0667 -51.3846 -51.3845 -51.3252 -51.3252
   -51.2454 -51.2454 -51.2365 -51.2365 -30.0900 -30.0899 -30.0818 -30.0817
   -30.0699 -30.0698 -30.0518 -30.0517 -30.0322 -30.0322 -30.0277 -30.0276
   -19.2371 -19.2371 -18.9052 -18.9052 -18.6045 -18.6045 -18.5462 -18.5462
   -18.4755 -18.4755 -18.4072 -18.4072 -18.2850 -18.2850 -18.1402 -18.1401
   -18.0318 -18.0318 -17.9739 -17.9739 -17.9276 -17.9275 -17.9063 -17.9063
    16.0227  16.0228  16.0793  16.0793  16.1105  16.1105  16.2814  16.2814
    16.3603  16.3603  16.5305  16.5305  16.6376  16.6376  16.7120  16.7120
    16.8908  16.8909  17.0017  17.0017  18.6091  18.6091  19.5047  19.5047
    19.9039  19.9039  20.0634  20.0634  20.3531  20.3531  20.4571  20.4571
    20.9041  20.9041  21.3249  21.3249  21.5898  21.5898  21.7413  21.7413
    22.0237  22.0237  22.4791  22.4792  22.7353  22.7353  23.1298  23.1298
    23.3376  23.3376  23.5700  23.5700  23.7905  23.7905  24.1423  24.1423
    24.2953  24.2953  24.4397  24.4397  25.0095  25.0095  25.7955  25.7955
    26.7664  26.7664  29.0611  29.0611  30.3846  30.3847  30.9090  30.9090
    32.1595  32.1596  33.8043  33.8044  35.5948  35.5948  36.3846  36.3846
    36.7799  36.7799  37.5358  37.5358  38.0179  38.0180  38.6584  38.6584
    38.9802  38.9802  39.2890  39.2891  39.6541  39.6542  40.1232  40.1232
    40.7379  40.7380  41.0886  41.0888  41.6822

     the Fermi energy is    34.3176 ev

!    total energy              =   -3398.19291526 Ry
     Harris-Foulkes estimate   =   -3398.19292979 Ry
     estimated scf accuracy    <       0.00001389 Ry

     The total energy is the sum of the following terms:

     one-electron contribution =    -530.58790804 Ry
     hartree contribution      =     481.13770817 Ry
     xc contribution           =    -307.35968452 Ry
     ewald contribution        =   -3041.13335018 Ry
     smearing contrib. (-TS)   =      -0.24968070 Ry

     convergence has been achieved in  10 iterations

     Forces acting on atoms (Ry/au):

     atom    1 type  1   force =     0.00000000    0.00000000    0.02449031
     atom    2 type  1   force =     0.00000000    0.00000000    0.02449031
     atom    3 type  1   force =     0.00000000    0.00000000   -0.02449031
     atom    4 type  1   force =     0.00000000    0.00000000   -0.02449031
     atom    5 type  2   force =     0.00000000    0.00000000    0.00000000
     atom    6 type  2   force =     0.00000000    0.00000000    0.00000000
     atom    7 type  2   force =     0.00000000    0.02510217    0.00000000
     atom    8 type  2   force =    -0.02173912    0.01255109    0.00000000
     atom    9 type  2   force =     0.02173912    0.01255109    0.00000000
     atom   10 type  2   force =    -0.02173912   -0.01255109    0.00000000
     atom   11 type  2   force =     0.02173912   -0.01255109    0.00000000
     atom   12 type  2   force =     0.00000000   -0.02510217    0.00000000

     Total force =     0.078612     Total SCF correction =     0.000000


     entering subroutine stress ...

          total   stress  (Ry/bohr**3)                   (kbar)     P= 1026.61
   0.00686354   0.00000000   0.00000000       1009.66      0.00      0.00
   0.00000000   0.00686354   0.00000000          0.00   1009.66      0.00
   0.00000000   0.00000000   0.00720919          0.00      0.00   1060.51


     BFGS Geometry Optimization

     number of scf cycles    =   1
     number of bfgs steps    =   0

     enthalpy new            =   -3398.1929152633 Ry

     new trust radius        =       0.5000000000 bohr
     new conv_thr            =       0.0001000000 Ry

     new unit-cell volume =   1646.83385 a.u.^3 (   244.03560 Ang^3 )

CELL_PARAMETERS (alat=  9.92348860)
   1.064515905   0.000000000   0.000000000
  -0.532257953   0.921897817   0.000000000
   0.000000000   0.000000000   1.717203317

ATOMIC_POSITIONS (crystal)
Mg       0.333333000   0.666667000   0.062994982
Mg       0.666667000   0.333333000   0.562994982
Mg       0.666667000   0.333333000   0.937005018
Mg       0.333333000   0.666667000   0.437005018
Zn       0.000000000   0.000000000   0.000000000
Zn       0.000000000   0.000000000   0.500000000
Zn       0.170910117   0.341820233   0.750000000
Zn       0.829089883   0.170910117   0.250000000
Zn       0.341820233   0.170910117   0.250000000
Zn       0.658179767   0.829089883   0.750000000
Zn       0.170910117   0.829089883   0.750000000
Zn       0.829089883   0.658179767   0.250000000



     Writing output data file Prototype-La-hP12-MgZn2.save
     NEW-OLD atomic charge density approx. for the potential
     NEW k-points:
        k(    1) = (   0.0000000   0.0000000   0.0000000), wk =   0.0833333
        k(    2) = (   0.0000000   0.0000000   0.1455856), wk =   0.1666667
        k(    3) = (   0.0000000   0.0000000  -0.2911711), wk =   0.0833333
        k(    4) = (   0.0000000   0.3615730   0.0000000), wk =   0.1666667
        k(    5) = (   0.0000000   0.3615730   0.1455856), wk =   0.3333333
        k(    6) = (   0.0000000   0.3615730  -0.2911711), wk =   0.1666667
        k(    7) = (  -0.4696971  -0.2711797   0.0000000), wk =   0.0833333
        k(    8) = (  -0.4696971  -0.2711797   0.1455856), wk =   0.1666667
        k(    9) = (  -0.4696971  -0.2711797  -0.2911711), wk =   0.0833333
        k(   10) = (  -0.4696971   0.0903932   0.0000000), wk =   0.1666667
        k(   11) = (  -0.4696971   0.0903932   0.1455856), wk =   0.3333333
        k(   12) = (  -0.4696971   0.0903932  -0.2911711), wk =   0.1666667

     total cpu time spent up to now is      376.7 secs

     Self-consistent Calculation

     iteration #  1     ecut=    40.00 Ry     beta=0.70
     CG style diagonalization
     c_bands:  1 eigenvalues not converged
     c_bands:  1 eigenvalues not converged
     ethr =  1.00E-06,  avg # of iterations = 19.2

     total cpu time spent up to now is      487.8 secs

     total energy              =   -3386.97841129 Ry
     Harris-Foulkes estimate   =   -3413.45140885 Ry
     estimated scf accuracy    <      33.25010103 Ry

     iteration #  2     ecut=    40.00 Ry     beta=0.70
     CG style diagonalization
     ethr =  1.00E-02,  avg # of iterations =  3.9

     total cpu time spent up to now is      509.0 secs

     total energy              =   -3396.73375285 Ry
     Harris-Foulkes estimate   =   -3401.51813028 Ry
     estimated scf accuracy    <       7.36817740 Ry

     iteration #  3     ecut=    40.00 Ry     beta=0.70
     CG style diagonalization
     ethr =  2.97E-03,  avg # of iterations =  3.6

     total cpu time spent up to now is      529.2 secs

     total energy              =   -3398.64588737 Ry
     Harris-Foulkes estimate   =   -3398.87970945 Ry
     estimated scf accuracy    <       0.41028298 Ry

     iteration #  4     ecut=    40.00 Ry     beta=0.70
     CG style diagonalization
     ethr =  1.65E-04,  avg # of iterations =  3.7

     total cpu time spent up to now is      550.5 secs

     total energy              =   -3398.75546519 Ry
     Harris-Foulkes estimate   =   -3398.75928238 Ry
     estimated scf accuracy    <       0.00598823 Ry

     iteration #  5     ecut=    40.00 Ry     beta=0.70
     CG style diagonalization
     c_bands:  1 eigenvalues not converged
     ethr =  2.41E-06,  avg # of iterations =  4.5

     total cpu time spent up to now is      575.6 secs

     total energy              =   -3398.75807636 Ry
     Harris-Foulkes estimate   =   -3398.75855115 Ry
     estimated scf accuracy    <       0.00087336 Ry

     iteration #  6     ecut=    40.00 Ry     beta=0.70
     CG style diagonalization
     ethr =  3.52E-07,  avg # of iterations =  3.5

     total cpu time spent up to now is      595.2 secs

     End of self-consistent calculation

          k = 0.0000 0.0000 0.0000 (  5769 PWs)   bands (ev):

   -74.0040 -73.9820 -73.9737 -73.9120 -56.7943 -56.7892 -56.7556 -56.7323
   -56.7323 -56.7204 -56.7203 -56.6997 -36.2207 -36.2113 -36.2113 -36.2006
   -36.1882 -36.1882 -36.1826 -36.1726 -36.1726 -36.1622 -36.1621 -36.1536
   -24.5012 -24.3647 -24.1305 -23.9720 -23.9720 -23.9471 -23.9471 -23.8815
   -23.8814 -23.7958 -23.7778 -23.6975 -23.6974 -23.6858 -23.6858 -23.5201
   -23.5201 -23.5119 -23.5106 -23.4952 -23.4938 -23.4937 -23.4731 -23.4731
    10.2589  10.2590  10.2829  10.2999  10.2999  10.3110  10.3811  10.3811
    10.4270  10.4270  10.6140  10.6140  10.6350  10.6785  10.6785  10.6800
    10.7241  10.7241  10.7477  10.7477  13.0745  13.6313  13.9228  13.9259
    14.8163  14.8163  14.9818  14.9819  15.0729  15.0729  15.1029  15.3029
    15.6249  15.6250  15.7883  16.1089  16.4045  16.4045  16.4978  16.4978
    17.1343  17.1343  17.1665  17.7303  17.7308  17.7309  18.2097  18.2304
    18.2929  18.3677  18.3677  18.3757  18.3757  18.5108  18.5109  18.5820
    18.5820  19.4704  19.4705  19.7914  19.7914  20.5089  20.5099  22.0265
    22.0756  22.7450  23.4190  23.4191  23.7489  23.8918  23.8919  24.3471
    25.2548  25.4310  25.4311  25.9652  26.4670  26.4672  26.6015  27.0749
    27.0750  28.7568  28.7569  30.1749  30.4813  31.1116  31.1117  31.1361
    31.5686  31.5687  32.0464  32.0466  32.4393  32.4394  32.6653  32.8821
    33.0888  33.0888  33.3179  35.0433  35.2392

          k = 0.0000 0.0000 0.1456 (  5780 PWs)   bands (ev):

   -74.0066 -74.0034 -73.9655 -73.9213 -56.7934 -56.7852 -56.7372 -56.7371
   -56.7356 -56.7284 -56.7283 -56.7260 -36.2144 -36.2086 -36.2019 -36.2019
   -36.2016 -36.2016 -36.1881 -36.1735 -36.1735 -36.1662 -36.1662 -36.1583
   -24.4870 -24.3882 -24.1019 -23.9743 -23.9743 -23.9548 -23.9548 -23.8796
   -23.8659 -23.8659 -23.7649 -23.7648 -23.6866 -23.6338 -23.6338 -23.5259
   -23.5228 -23.5227 -23.5160 -23.5081 -23.4982 -23.4982 -23.4816 -23.4816
    10.2747  10.2747  10.2780  10.3033  10.3149  10.3149  10.3610  10.3610
    10.4046  10.4046  10.6300  10.6300  10.6507  10.6778  10.6799  10.6799
    10.7211  10.7211  10.7423  10.7423  13.1307  13.4690  14.0599  14.1454
    14.8260  14.8260  14.9090  14.9090  14.9433  15.0916  15.2361  15.2361
    15.6456  15.6456  15.7862  15.8307  16.2246  16.2246  16.2812  16.2812
    17.3006  17.4393  17.4393  17.8255  17.8255  17.8849  18.2394  18.2836
    18.3191  18.3191  18.3487  18.3488  18.5329  18.5329  18.5821  18.5821
    18.7592  19.4900  19.4901  19.7331  19.7331  20.5090  20.5098  21.6422
    22.0297  22.7232  23.0800  23.3397  23.3397  23.6817  23.6817  24.0542
    25.6679  25.6680  25.7369  26.3016  26.3151  26.3152  27.5520  27.6261
    27.6262  28.9572  28.9573  29.1935  30.2100  30.2101  30.6442  30.8146
    30.8147  31.1600  32.6731  32.6732  32.8824  32.8825  32.9625  32.9795
    33.0756  33.4092  33.4092  34.4502  35.3291

          k = 0.0000 0.0000-0.2912 (  5780 PWs)   bands (ev):

   -73.9994 -73.9993 -73.9472 -73.9471 -56.8022 -56.8022 -56.7492 -56.7492
   -56.7163 -56.7163 -56.7163 -56.7163 -36.2103 -36.2102 -36.1997 -36.1997
   -36.1996 -36.1996 -36.1904 -36.1903 -36.1636 -36.1636 -36.1635 -36.1635
   -24.4372 -24.4372 -24.0307 -24.0307 -23.9580 -23.9579 -23.9579 -23.9579
   -23.8133 -23.8133 -23.8133 -23.8133 -23.6033 -23.6033 -23.5693 -23.5692
   -23.5692 -23.5692 -23.5020 -23.5020 -23.4941 -23.4941 -23.4941 -23.4941
    10.2830  10.2831  10.3151  10.3152  10.3152  10.3152  10.3571  10.3571
    10.3571  10.3571  10.6633  10.6633  10.6633  10.6633  10.6675  10.6676
    10.7303  10.7303  10.7303  10.7303  13.2735  13.2735  14.3595  14.3595
    14.6977  14.6977  14.8550  14.8550  14.8551  14.8551  15.5155  15.5155
    15.5155  15.5155  15.7573  15.7573  16.0981  16.0981  16.0981  16.0981
    17.6153  17.6153  17.7939  17.7939  17.7939  17.7939  18.2614  18.2614
    18.2909  18.2909  18.2909  18.2909  18.5683  18.5683  18.5684  18.5684
    19.5913  19.5913  19.5913  19.5913  20.2579  20.2579  20.5094  20.5094
    22.1216  22.1216  23.3821  23.3821  23.3821  23.3821  23.5765  23.5765
    26.0502  26.0502  26.0502  26.0502  26.2976  26.2976  28.6907  28.6907
    28.7141  28.7141  28.7142  28.7143  29.8516  29.8516  29.8517  29.8517
    30.5045  30.5045  33.0531  33.0531  33.0715  33.0715  33.0715  33.0715
    33.6305  34.2587  34.2589  34.2589  34.2589

          k = 0.0000 0.3616 0.0000 (  5787 PWs)   bands (ev):

   -74.0015 -73.9910 -73.9644 -73.9554 -56.8062 -56.7713 -56.7574 -56.7499
   -56.7339 -56.7308 -56.7196 -56.7161 -36.2146 -36.2126 -36.2092 -36.2033
   -36.2023 -36.1953 -36.1833 -36.1796 -36.1774 -36.1753 -36.1637 -36.1605
   -24.3551 -24.2386 -24.1456 -24.0048 -23.9402 -23.8919 -23.8915 -23.8779
   -23.8497 -23.7985 -23.7410 -23.7174 -23.7105 -23.7057 -23.6894 -23.6558
   -23.6130 -23.5951 -23.5891 -23.5320 -23.5177 -23.4991 -23.4959 -23.4865
    10.2004  10.2261  10.2534  10.3226  10.3384  10.3396  10.3628  10.4330
    10.4705  10.4854  10.5083  10.5313  10.5375  10.6581  10.6584  10.6606
    10.7133  10.7657  10.7724  10.8091  13.7684  14.3106  14.3534  14.7211
    14.8278  14.9878  15.2206  15.3982  15.4132  15.4314  15.7507  15.7808
    15.9518  16.0187  16.0511  16.1806  16.3175  16.4894  16.5361  16.6044
    16.8592  16.9661  17.1354  17.1742  17.3814  17.4628  17.5922  17.6314
    17.9123  17.9522  18.0800  18.3027  18.3078  18.3737  18.4190  18.4269
    18.6369  18.6491  18.8770  19.0642  19.3079  19.4349  19.5449  19.9941
    21.3600  21.4060  21.5440  22.6668  23.1539  23.4314  23.6585  25.1185
    25.6439  25.7505  26.6840  27.6362  28.0946  28.2418  28.3893  29.1229
    29.4625  29.6227  29.8630  30.2235  30.5313  30.8025  30.9084  31.0764
    31.1999  31.6102  31.7862  32.1740  32.7635  32.8880  33.2051  33.4917
    34.3480  34.4750  34.4931  34.5306  34.8656

          k = 0.0000 0.3616 0.1456 (  5804 PWs)   bands (ev):

   -74.0145 -74.0023 -73.9723 -73.9668 -56.8033 -56.7853 -56.7663 -56.7482
   -56.7411 -56.7369 -56.7279 -56.7244 -36.2181 -36.2148 -36.2121 -36.2088
   -36.2064 -36.1978 -36.1941 -36.1866 -36.1781 -36.1726 -36.1701 -36.1645
   -24.3517 -24.2785 -24.1042 -24.0110 -23.9397 -23.8896 -23.8871 -23.8795
   -23.8557 -23.8440 -23.7873 -23.7584 -23.7086 -23.6972 -23.6499 -23.6279
   -23.6141 -23.5775 -23.5767 -23.5458 -23.5290 -23.5098 -23.5015 -23.5005
    10.2150  10.2394  10.2622  10.3085  10.3149  10.3299  10.3819  10.3977
    10.4409  10.4606  10.5497  10.5540  10.5684  10.6368  10.6484  10.6936
    10.7286  10.7450  10.7664  10.7965  13.8095  14.1006  14.5875  14.7543
    14.9203  15.0185  15.2913  15.3812  15.4056  15.4585  15.5459  15.7632
    15.8249  15.8264  16.0304  16.0689  16.3890  16.4074  16.5955  16.6505
    16.6901  17.1038  17.2407  17.3773  17.3889  17.5351  17.5572  17.7396
    17.9383  17.9495  18.1268  18.2523  18.3259  18.3264  18.4524  18.4822
    18.4871  18.7395  18.7755  18.8752  19.2306  19.5683  19.8945  19.9032
    20.6818  21.6052  22.2878  22.7346  22.8687  23.3540  23.4324  24.6954
    25.7418  26.3676  26.6542  27.3824  27.4434  28.1864  28.9646  29.1988
    29.2412  29.5313  29.9912  30.2372  30.3529  30.6123  31.2671  31.5553
    31.7031  31.8935  32.2600  32.3865  32.4927  32.6831  32.9579  33.1610
    34.0223  34.1154  34.3211  34.7125  34.7497

          k = 0.0000 0.3616-0.2912 (  5816 PWs)   bands (ev):

   -74.0121 -74.0120 -73.9815 -73.9814 -56.7958 -56.7958 -56.7606 -56.7606
   -56.7413 -56.7413 -56.7366 -56.7366 -36.2216 -36.2216 -36.2107 -36.2106
   -36.2020 -36.2020 -36.1967 -36.1967 -36.1748 -36.1748 -36.1729 -36.1729
   -24.3278 -24.3278 -24.0496 -24.0496 -23.9178 -23.9177 -23.8901 -23.8901
   -23.8472 -23.8472 -23.8116 -23.8116 -23.6962 -23.6962 -23.6248 -23.6248
   -23.5812 -23.5812 -23.5569 -23.5569 -23.5389 -23.5389 -23.5000 -23.4999
    10.2544  10.2544  10.2842  10.2843  10.2873  10.2873  10.4038  10.4038
    10.4202  10.4202  10.5829  10.5829  10.5943  10.5943  10.6799  10.6800
    10.7504  10.7504  10.7578  10.7579  13.9243  13.9243  14.7524  14.7525
    15.1401  15.1401  15.2347  15.2347  15.4475  15.4475  15.5116  15.5116
    15.7822  15.7822  15.9484  15.9484  16.3788  16.3788  16.5678  16.5678
    16.9441  16.9441  17.4028  17.4029  17.5552  17.5552  17.7870  17.7871
    17.9125  17.9125  18.2377  18.2377  18.2496  18.2496  18.4339  18.4339
    18.5667  18.5667  18.8483  18.8483  19.4265  19.4265  19.6915  19.6915
    21.5841  21.5841  22.1696  22.1696  22.9568  22.9568  24.1811  24.1811
    25.9891  25.9891  27.2559  27.2559  27.6097  27.6097  28.6017  28.6017
    29.6206  29.6206  30.2947  30.2947  31.0767  31.0767  31.4306  31.4306
    31.8045  31.8045  32.2823  32.2824  32.5430  32.5430  33.4469  33.4469
    33.6562  33.6562  33.9127  33.9127  35.0833

          k =-0.4697-0.2712 0.0000 (  5800 PWs)   bands (ev):

   -74.0087 -73.9956 -73.9884 -73.9516 -56.7985 -56.7803 -56.7576 -56.7521
   -56.7499 -56.7326 -56.7307 -56.7185 -36.2211 -36.2105 -36.2077 -36.2065
   -36.2013 -36.1955 -36.1944 -36.1905 -36.1786 -36.1780 -36.1717 -36.1585
   -24.2928 -24.1862 -24.1447 -24.0585 -23.9129 -23.8976 -23.8748 -23.8508
   -23.8111 -23.8017 -23.7581 -23.7466 -23.7222 -23.7067 -23.7030 -23.7021
   -23.6709 -23.6223 -23.6140 -23.5419 -23.5176 -23.4984 -23.4906 -23.4896
    10.2064  10.2218  10.2810  10.3056  10.3106  10.3217  10.3549  10.4655
    10.4750  10.4929  10.4956  10.5039  10.5041  10.6509  10.6575  10.6739
    10.7272  10.7659  10.7821  10.8067  14.0513  14.4338  14.5919  14.9638
    15.0770  15.2404  15.5091  15.5267  15.5471  15.5975  15.8151  15.8313
    15.9665  16.0970  16.1109  16.4267  16.6001  16.6310  16.6657  16.7128
    16.8203  16.8904  16.9204  17.0139  17.1869  17.3328  17.4174  17.4324
    17.5965  17.7603  17.7829  17.8804  17.9983  18.2323  18.3205  18.3694
    18.3916  18.4357  18.5734  18.6527  19.3203  19.4778  19.5760  19.9768
    20.5085  20.7280  21.4286  22.5990  22.9364  23.3546  23.6300  25.8791
    25.9757  26.0079  27.1864  27.5921  28.4688  29.0120  29.1411  29.1706
    29.8584  30.0603  30.1914  30.4486  30.4916  30.8630  31.0373  31.0710
    31.3026  31.5400  31.7765  31.9204  31.9211  32.1589  33.4826  33.7049
    34.2484  35.1027  35.1588  35.2838  35.4414

          k =-0.4697-0.2712 0.1456 (  5822 PWs)   bands (ev):

   -74.0234 -74.0198 -73.9806 -73.9771 -56.8000 -56.7870 -56.7625 -56.7578
   -56.7569 -56.7446 -56.7366 -56.7365 -36.2179 -36.2169 -36.2133 -36.2112
   -36.2102 -36.2098 -36.2041 -36.1999 -36.1768 -36.1763 -36.1733 -36.1666
   -24.2889 -24.2247 -24.1143 -24.0601 -23.9240 -23.8818 -23.8739 -23.8569
   -23.8412 -23.8051 -23.8040 -23.7558 -23.7475 -23.7348 -23.6920 -23.6803
   -23.6507 -23.6062 -23.5821 -23.5558 -23.5286 -23.5069 -23.5030 -23.5026
    10.2215  10.2378  10.2813  10.2958  10.3099  10.3165  10.3786  10.3839
    10.3925  10.4667  10.5409  10.5756  10.5857  10.6290  10.6591  10.6688
    10.7343  10.7599  10.7682  10.7851  14.0826  14.3139  14.7523  14.9922
    15.0758  15.2268  15.4237  15.5085  15.5254  15.5382  15.7930  15.8759
    16.0138  16.0782  16.1352  16.4019  16.4991  16.6788  16.6805  16.7308
    16.7542  16.8994  16.9984  17.0364  17.2193  17.2943  17.5380  17.5623
    17.6486  17.7646  17.8684  17.9325  18.0604  18.1701  18.2976  18.3135
    18.4117  18.4611  18.4657  18.6209  18.8741  18.8782  19.5887  19.8716
    21.3779  21.4300  21.5782  22.4327  22.6601  23.1495  23.9851  24.7277
    25.3710  26.5356  27.5707  27.5872  28.4434  29.0485  29.2672  29.4886
    29.5213  29.9391  30.0547  30.4130  30.6927  30.7239  30.7976  30.9640
    31.8358  32.1320  32.1418  32.1904  32.2945  32.6060  33.1430  33.5451
    34.0445  34.1235  34.5862  35.0522  35.3657

          k =-0.4697-0.2712-0.2912 (  5804 PWs)   bands (ev):

   -74.0012 -74.0011 -73.9764 -73.9763 -56.7850 -56.7850 -56.7509 -56.7509
   -56.7414 -56.7413 -56.7395 -56.7395 -36.2121 -36.2121 -36.2065 -36.2065
   -36.2006 -36.2005 -36.1941 -36.1940 -36.1762 -36.1762 -36.1727 -36.1726
   -24.2661 -24.2660 -24.0771 -24.0771 -23.8921 -23.8921 -23.8702 -23.8702
   -23.8310 -23.8310 -23.7743 -23.7743 -23.7423 -23.7423 -23.6812 -23.6812
   -23.5904 -23.5904 -23.5641 -23.5641 -23.5258 -23.5258 -23.5021 -23.5021
    10.2589  10.2589  10.2851  10.2851  10.3013  10.3014  10.3454  10.3454
    10.4238  10.4239  10.5852  10.5852  10.6415  10.6415  10.6561  10.6562
    10.7492  10.7492  10.7517  10.7517  14.1757  14.1757  15.0101  15.0101
    15.0641  15.0641  15.3857  15.3857  15.5467  15.5467  15.8725  15.8725
    15.9808  15.9808  16.3966  16.3966  16.4206  16.4206  16.7410  16.7410
    16.7881  16.7881  17.1435  17.1435  17.3208  17.3208  17.6676  17.6676
    17.6844  17.6844  18.0604  18.0604  18.0713  18.0714  18.1757  18.1757
    18.3503  18.3503  18.5457  18.5457  18.5927  18.5927  19.6807  19.6807
    21.7038  21.7038  22.8481  22.8481  22.8569  22.8569  23.1585  23.1585
    26.1501  26.1501  27.7209  27.7209  28.2153  28.2153  29.8590  29.8590
    29.9100  29.9100  30.3334  30.3334  30.4112  30.4112  30.9800  30.9800
    32.2467  32.2467  32.5182  32.5182  32.5569  32.5569  33.6620  33.6620
    33.8624  33.8626  34.0997  34.0997  34.7846

          k =-0.4697 0.0904 0.0000 (  5827 PWs)   bands (ev):

   -74.0253 -74.0054 -74.0023 -73.9785 -56.8078 -56.7806 -56.7724 -56.7697
   -56.7524 -56.7452 -56.7327 -56.7310 -36.2232 -36.2192 -36.2172 -36.2142
   -36.2111 -36.2043 -36.1955 -36.1894 -36.1868 -36.1789 -36.1788 -36.1696
   -24.2918 -24.1934 -24.1459 -24.0623 -23.9680 -23.9013 -23.8893 -23.8304
   -23.8182 -23.8092 -23.7495 -23.7464 -23.7217 -23.7180 -23.7053 -23.6979
   -23.6404 -23.6161 -23.6000 -23.5465 -23.5399 -23.5394 -23.5116 -23.4985
    10.2080  10.2092  10.2547  10.2721  10.3401  10.3708  10.3843  10.4632
    10.4810  10.4818  10.4877  10.5109  10.5110  10.6031  10.6039  10.6463
    10.7640  10.7780  10.8023  10.8209  14.1439  14.4928  14.7711  14.8747
    15.0629  15.2103  15.2962  15.3294  15.3890  15.6916  15.9437  15.9735
    15.9805  16.1040  16.1392  16.2580  16.4817  16.4928  16.5989  16.7638
    16.7982  16.8858  16.9816  17.0055  17.2101  17.2781  17.4328  17.4601
    17.6036  17.6957  17.8938  17.9710  18.0458  18.0987  18.2334  18.4064
    18.5304  18.5989  18.8446  19.0463  19.2225  19.3890  19.7869  19.8411
    20.3103  20.9154  20.9440  22.0871  22.1463  24.0428  24.8662  25.7158
    26.1379  26.4863  27.0703  27.6064  27.6727  28.0734  28.4966  29.3475
    29.4390  29.5322  30.0346  30.3518  30.6733  30.8035  31.2755  31.7115
    31.7126  31.8726  32.2114  32.2920  32.8292  32.8520  33.4198  33.8508
    34.4453  34.5720  34.6653  34.9169  34.9187

          k =-0.4697 0.0904 0.1456 (  5825 PWs)   bands (ev):

   -74.0256 -74.0068 -73.9917 -73.9825 -56.8030 -56.7883 -56.7708 -56.7613
   -56.7477 -56.7438 -56.7410 -56.7308 -36.2205 -36.2195 -36.2152 -36.2136
   -36.2107 -36.2029 -36.1967 -36.1951 -36.1807 -36.1782 -36.1753 -36.1737
   -24.2830 -24.2212 -24.1186 -24.0682 -23.9538 -23.8905 -23.8794 -23.8476
   -23.8358 -23.8114 -23.7935 -23.7756 -23.7282 -23.7218 -23.6715 -23.6618
   -23.6276 -23.6013 -23.5820 -23.5520 -23.5435 -23.5377 -23.5190 -23.5059
    10.2226  10.2240  10.2560  10.2637  10.3406  10.3557  10.3847  10.4036
    10.4356  10.4686  10.5271  10.5556  10.5708  10.5780  10.6306  10.6417
    10.7609  10.7729  10.7864  10.8122  14.1755  14.3990  14.8627  14.9015
    15.0798  15.2497  15.3202  15.3843  15.4238  15.6302  15.7221  15.8472
    15.9408  16.0523  16.2061  16.3190  16.3948  16.5651  16.6433  16.6621
    16.7786  16.9075  16.9915  17.1650  17.2228  17.4470  17.4663  17.5397
    17.6404  17.6924  17.8692  18.0069  18.0706  18.1903  18.2511  18.3792
    18.4892  18.5532  18.7214  18.8278  19.0313  19.3923  19.5790  19.7152
    20.3580  20.8538  21.3180  22.2513  23.3423  23.9585  24.2165  25.1170
    25.5582  26.3285  26.7503  27.2126  27.8516  28.6791  29.0694  29.4705
    29.7781  29.8763  30.1633  30.3381  30.7400  30.8731  31.1402  31.4728
    31.9417  32.0585  32.2506  32.4051  32.7698  33.0321  33.4508  33.6615
    33.9480  34.4160  34.5119  34.6823  34.7750

          k =-0.4697 0.0904-0.2912 (  5824 PWs)   bands (ev):

   -74.0118 -74.0117 -73.9906 -73.9905 -56.7919 -56.7919 -56.7664 -56.7664
   -56.7458 -56.7458 -56.7380 -56.7380 -36.2188 -36.2188 -36.2105 -36.2104
   -36.2067 -36.2066 -36.1963 -36.1962 -36.1805 -36.1804 -36.1773 -36.1772
   -24.2590 -24.2590 -24.0824 -24.0824 -23.9092 -23.9092 -23.8701 -23.8701
   -23.8320 -23.8320 -23.8029 -23.8029 -23.7266 -23.7266 -23.6505 -23.6505
   -23.5976 -23.5976 -23.5616 -23.5616 -23.5419 -23.5419 -23.5296 -23.5296
    10.2435  10.2436  10.2621  10.2621  10.3136  10.3137  10.3986  10.3986
    10.4353  10.4354  10.5530  10.5530  10.5957  10.5958  10.6468  10.6468
    10.7533  10.7533  10.7925  10.7925  14.2666  14.2666  14.9230  14.9230
    15.2265  15.2265  15.3591  15.3591  15.5403  15.5403  15.6267  15.6267
    15.9674  15.9674  16.2631  16.2631  16.4707  16.4707  16.6351  16.6351
    16.8396  16.8396  17.1648  17.1648  17.3292  17.3292  17.6065  17.6065
    17.7830  17.7830  17.9461  17.9461  18.1659  18.1659  18.3385  18.3385
    18.4563  18.4563  18.5779  18.5779  19.1038  19.1038  19.5303  19.5303
    20.5085  20.5085  22.5523  22.5523  23.6599  23.6599  24.3741  24.3741
    25.2889  25.2889  26.8468  26.8468  28.7014  28.7014  29.3273  29.3273
    29.9413  29.9413  30.4863  30.4863  30.9200  30.9200  31.6595  31.6595
    32.1051  32.1051  32.3296  32.3297  32.6251  32.6251  33.2546  33.2546
    33.9983  33.9983  34.4543  34.4544  34.6793

     the Fermi energy is    27.3254 ev

!    total energy              =   -3398.75825750 Ry
     Harris-Foulkes estimate   =   -3398.75830324 Ry
     estimated scf accuracy    <       0.00005657 Ry

     The total energy is the sum of the following terms:

     one-electron contribution =    -804.84564044 Ry
     hartree contribution      =     564.33487486 Ry
     xc contribution           =    -303.73053368 Ry
     ewald contribution        =   -2854.24975571 Ry
     smearing contrib. (-TS)   =      -0.26720254 Ry

     convergence has been achieved in   6 iterations

     Forces acting on atoms (Ry/au):

     atom    1 type  1   force =     0.00000000    0.00000000    0.00323161
     atom    2 type  1   force =     0.00000000    0.00000000    0.00323161
     atom    3 type  1   force =     0.00000000    0.00000000   -0.00323161
     atom    4 type  1   force =     0.00000000    0.00000000   -0.00323161
     atom    5 type  2   force =     0.00000000    0.00000000    0.00000000
     atom    6 type  2   force =     0.00000000    0.00000000    0.00000000
     atom    7 type  2   force =     0.00000000   -0.01791278    0.00000000
     atom    8 type  2   force =     0.01551293   -0.00895639    0.00000000
     atom    9 type  2   force =    -0.01551293   -0.00895639    0.00000000
     atom   10 type  2   force =     0.01551293    0.00895639    0.00000000
     atom   11 type  2   force =    -0.01551293    0.00895639    0.00000000
     atom   12 type  2   force =     0.00000000    0.01791278    0.00000000

     Total force =     0.044351     Total SCF correction =     0.000000


     entering subroutine stress ...

          total   stress  (Ry/bohr**3)                   (kbar)     P= -266.17
  -0.00182534   0.00000000   0.00000000       -268.52      0.00      0.00
   0.00000000  -0.00182534   0.00000000          0.00   -268.52      0.00
   0.00000000   0.00000000  -0.00177754          0.00      0.00   -261.48


     number of scf cycles    =   2
     number of bfgs steps    =   1

     enthalpy old            =   -3398.1929152633 Ry
     enthalpy new            =   -3398.7582575046 Ry

     CASE: enthalpy_new < enthalpy_old

     small trust_radius: resetting bfgs history

     new trust radius        =       0.3703733232 bohr
     new conv_thr            =       0.0000179128 Ry

     new unit-cell volume =   1433.30541 a.u.^3 (   212.39395 Ang^3 )

CELL_PARAMETERS (alat=  9.92348860)
   1.015938203   0.000000000   0.000000000
  -0.507969102   0.879828293   0.000000000
   0.000000000   0.000000000   1.640893523

ATOMIC_POSITIONS (crystal)
Mg       0.333333000   0.666667000   0.063184623
Mg       0.666667000   0.333333000   0.563184623
Mg       0.666667000   0.333333000   0.936815377
Mg       0.333333000   0.666667000   0.436815377
Zn       0.000000000   0.000000000   0.000000000
Zn       0.000000000   0.000000000   0.500000000
Zn       0.169931109   0.339862219   0.750000000
Zn       0.830068891   0.169931109   0.250000000
Zn       0.339862219   0.169931109   0.250000000
Zn       0.660137781   0.830068891   0.750000000
Zn       0.169931109   0.830068891   0.750000000
Zn       0.830068891   0.660137781   0.250000000



     Writing output data file Prototype-La-hP12-MgZn2.save
     NEW-OLD atomic charge density approx. for the potential
     NEW k-points:
        k(    1) = (   0.0000000   0.0000000   0.0000000), wk =   0.0833333
        k(    2) = (   0.0000000   0.0000000   0.1523560), wk =   0.1666667
        k(    3) = (   0.0000000   0.0000000  -0.3047120), wk =   0.0833333
        k(    4) = (   0.0000000   0.3788618   0.0000000), wk =   0.1666667
        k(    5) = (   0.0000000   0.3788618   0.1523560), wk =   0.3333333
        k(    6) = (   0.0000000   0.3788618  -0.3047120), wk =   0.1666667
        k(    7) = (  -0.4921559  -0.2841464   0.0000000), wk =   0.0833333
        k(    8) = (  -0.4921559  -0.2841464   0.1523560), wk =   0.1666667
        k(    9) = (  -0.4921559  -0.2841464  -0.3047120), wk =   0.0833333
        k(   10) = (  -0.4921559   0.0947155   0.0000000), wk =   0.1666667
        k(   11) = (  -0.4921559   0.0947155   0.1523560), wk =   0.3333333
        k(   12) = (  -0.4921559   0.0947155  -0.3047120), wk =   0.1666667

     total cpu time spent up to now is      603.5 secs

     Self-consistent Calculation

     iteration #  1     ecut=    40.00 Ry     beta=0.70
     CG style diagonalization
     c_bands:  1 eigenvalues not converged
     ethr =  1.00E-06,  avg # of iterations = 18.5

     total cpu time spent up to now is      710.2 secs

     total energy              =   -3390.92262937 Ry
     Harris-Foulkes estimate   =   -3407.08587824 Ry
     estimated scf accuracy    <      20.10483125 Ry

     iteration #  2     ecut=    40.00 Ry     beta=0.70
     CG style diagonalization
     ethr =  8.11E-03,  avg # of iterations =  3.8

     total cpu time spent up to now is      730.7 secs

     total energy              =   -3397.04341232 Ry
     Harris-Foulkes estimate   =   -3400.80629295 Ry
     estimated scf accuracy    <       5.92925023 Ry

     iteration #  3     ecut=    40.00 Ry     beta=0.70
     CG style diagonalization
     ethr =  2.39E-03,  avg # of iterations =  3.6

     total cpu time spent up to now is      750.9 secs

     total energy              =   -3398.43098842 Ry
     Harris-Foulkes estimate   =   -3398.74614286 Ry
     estimated scf accuracy    <       0.58597074 Ry

     iteration #  4     ecut=    40.00 Ry     beta=0.70
     CG style diagonalization
     ethr =  2.36E-04,  avg # of iterations =  3.5

     total cpu time spent up to now is      770.2 secs

     total energy              =   -3398.57885722 Ry
     Harris-Foulkes estimate   =   -3398.59183833 Ry
     estimated scf accuracy    <       0.02100997 Ry

     iteration #  5     ecut=    40.00 Ry     beta=0.70
     CG style diagonalization
     c_bands:  1 eigenvalues not converged
     c_bands:  2 eigenvalues not converged
     ethr =  8.47E-06,  avg # of iterations =  4.3

     total cpu time spent up to now is      795.5 secs

     total energy              =   -3398.58609904 Ry
     Harris-Foulkes estimate   =   -3398.59028653 Ry
     estimated scf accuracy    <       0.00751329 Ry

     iteration #  6     ecut=    40.00 Ry     beta=0.70
     CG style diagonalization
     ethr =  3.03E-06,  avg # of iterations =  3.6

     total cpu time spent up to now is      815.1 secs

     total energy              =   -3398.58758543 Ry
     Harris-Foulkes estimate   =   -3398.58776771 Ry
     estimated scf accuracy    <       0.00033272 Ry

     iteration #  7     ecut=    40.00 Ry     beta=0.70
     CG style diagonalization
     ethr =  1.34E-07,  avg # of iterations =  3.8

     total cpu time spent up to now is      836.5 secs

     total energy              =   -3398.58765554 Ry
     Harris-Foulkes estimate   =   -3398.58767423 Ry
     estimated scf accuracy    <       0.00002982 Ry

     iteration #  8     ecut=    40.00 Ry     beta=0.70
     CG style diagonalization
     ethr =  1.20E-08,  avg # of iterations =  3.8

     total cpu time spent up to now is      856.7 secs

     End of self-consistent calculation

          k = 0.0000 0.0000 0.0000 (  5769 PWs)   bands (ev):

   -69.8013 -69.7878 -69.7810 -69.7430 -53.0041 -52.9813 -52.8848 -52.8537
   -52.8537 -52.8459 -52.8458 -52.8265 -31.8412 -31.8333 -31.8333 -31.8245
   -31.8099 -31.8099 -31.7945 -31.7830 -31.7830 -31.7743 -31.7743 -31.7664
   -21.0448 -20.8449 -20.5136 -20.2434 -20.2434 -20.2029 -20.2029 -20.1026
   -20.1026 -19.9510 -19.9386 -19.8139 -19.8139 -19.7940 -19.7940 -19.5296
   -19.5296 -19.5262 -19.5209 -19.5131 -19.4988 -19.4988 -19.4743 -19.4742
    14.4089  14.4090  14.4263  14.4766  14.4766  14.4994  14.6368  14.6368
    14.6835  14.6835  14.9356  14.9656  14.9656  15.0246  15.0521  15.0521
    15.1381  15.1381  15.1495  15.1495  15.9289  16.5942  16.8756  16.9996
    18.0731  18.0731  18.2441  18.2442  18.2726  18.2726  18.4366  18.6005
    19.0448  19.0448  19.2106  19.6821  20.0074  20.0074  20.1817  20.1817
    20.8591  20.8591  20.9621  21.5324  21.6941  21.6942  22.2788  22.3228
    22.4230  22.5178  22.5179  22.5678  22.5678  22.6955  22.6956  22.7959
    22.7960  23.9211  23.9212  24.3858  24.3858  25.3155  25.3174  26.5784
    26.5916  27.2656  27.7986  27.7987  28.1177  28.2730  28.2731  29.1050
    29.9848  29.9850  30.2396  31.0426  31.3507  31.3509  31.6095  32.2953
    32.2954  34.1694  34.1694  35.0617  35.4357  35.9632  35.9633  36.0203
    36.1501  36.1502  36.8725  36.8726  36.8751  37.3528  37.4305  37.4306
    37.5168  37.5168  38.1661  39.0746  39.2783

          k = 0.0000 0.0000 0.1524 (  5780 PWs)   bands (ev):

   -69.8037 -69.7999 -69.7765 -69.7490 -52.9989 -52.9837 -52.8704 -52.8561
   -52.8561 -52.8506 -52.8506 -52.8444 -31.8327 -31.8306 -31.8239 -31.8239
   -31.8223 -31.8223 -31.8024 -31.7843 -31.7843 -31.7783 -31.7783 -31.7714
   -21.0252 -20.8859 -20.4541 -20.2437 -20.2437 -20.2144 -20.2144 -20.1086
   -20.0752 -20.0752 -19.9142 -19.9142 -19.7832 -19.7076 -19.7075 -19.5464
   -19.5459 -19.5459 -19.5303 -19.5242 -19.4981 -19.4981 -19.4814 -19.4814
    14.4129  14.4377  14.4378  14.4859  14.5000  14.5000  14.5978  14.5979
    14.6446  14.6446  14.9722  14.9916  14.9954  14.9954  15.0643  15.0643
    15.1323  15.1323  15.1325  15.1325  16.0219  16.3907  17.1637  17.1763
    18.0790  18.0790  18.1409  18.1410  18.2154  18.3523  18.5102  18.5102
    19.0818  19.0818  19.2095  19.3410  19.7708  19.7708  19.8490  19.8490
    21.1398  21.3001  21.3001  21.8113  21.8114  21.8663  22.3369  22.4077
    22.4967  22.4968  22.5091  22.5091  22.7185  22.7185  22.7333  22.7926
    22.7927  23.9437  23.9437  24.3086  24.3086  25.3158  25.3170  26.0327
    26.5494  27.1221  27.6405  27.6406  27.7671  28.0168  28.0168  28.8681
    30.3913  30.3915  30.6342  31.2712  31.3652  31.3653  32.5042  32.6497
    32.6498  34.2213  34.2213  34.2262  35.2947  35.2948  35.7803  35.7804
    35.7956  36.0111  37.0988  37.2163  37.2163  37.3856  37.3856  37.6538
    37.8740  37.9663  37.9663  38.6492  39.4916

          k = 0.0000 0.0000-0.3047 (  5780 PWs)   bands (ev):

   -69.7984 -69.7983 -69.7650 -69.7649 -53.0021 -53.0021 -52.8652 -52.8652
   -52.8435 -52.8435 -52.8435 -52.8435 -31.8319 -31.8318 -31.8213 -31.8212
   -31.8212 -31.8212 -31.8020 -31.8019 -31.7750 -31.7750 -31.7750 -31.7750
   -20.9603 -20.9603 -20.3207 -20.3207 -20.2248 -20.2248 -20.2248 -20.2248
   -19.9982 -19.9982 -19.9982 -19.9981 -19.6513 -19.6513 -19.6133 -19.6133
   -19.6133 -19.6132 -19.5187 -19.5186 -19.4929 -19.4929 -19.4929 -19.4929
    14.4342  14.4342  14.5105  14.5105  14.5105  14.5105  14.5681  14.5681
    14.5681  14.5682  14.9868  14.9869  15.0515  15.0515  15.0515  15.0515
    15.1196  15.1196  15.1196  15.1196  16.1902  16.1902  17.5108  17.5108
    17.8719  17.8719  18.0968  18.0968  18.0968  18.0968  18.8966  18.8966
    18.8966  18.8966  19.2042  19.2042  19.6008  19.6008  19.6008  19.6008
    21.5433  21.5433  21.7701  21.7701  21.7701  21.7701  22.3724  22.3724
    22.4543  22.4543  22.4543  22.4543  22.7656  22.7656  22.7656  22.7656
    24.0969  24.0969  24.0970  24.0970  24.4039  24.4039  25.3164  25.3164
    26.6002  26.6002  27.6511  27.6511  27.6511  27.6511  28.3785  28.3785
    31.0367  31.0367  31.0368  31.0368  31.1535  31.1535  33.6294  33.6294
    33.6353  33.6353  33.6355  33.6355  35.1356  35.1357  35.1357  35.1357
    35.8311  35.8311  37.4305  37.4305  37.4306  37.4306  37.7315  37.7315
    37.7343  37.7343  38.8062  38.8062  38.8062

          k = 0.0000 0.3789 0.0000 (  5787 PWs)   bands (ev):

   -69.7994 -69.7932 -69.7756 -69.7704 -52.9961 -52.9491 -52.8971 -52.8858
   -52.8662 -52.8515 -52.8436 -52.8299 -31.8357 -31.8328 -31.8313 -31.8263
   -31.8217 -31.8173 -31.7980 -31.7920 -31.7869 -31.7861 -31.7738 -31.7720
   -20.8321 -20.6446 -20.5173 -20.2758 -20.1909 -20.1259 -20.1076 -20.0994
   -20.0454 -19.9629 -19.8941 -19.8559 -19.8326 -19.8240 -19.8062 -19.7409
   -19.6909 -19.6515 -19.6480 -19.5441 -19.5290 -19.5031 -19.4931 -19.4898
    14.3155  14.3695  14.4133  14.5269  14.5349  14.5471  14.5844  14.6471
    14.7137  14.7582  14.7963  14.8417  14.8435  15.0060  15.0150  15.0448
    15.0840  15.1723  15.1943  15.2322  16.7465  17.3856  17.4695  17.9202
    18.0168  18.2671  18.5388  18.7348  18.8035  18.8407  19.2216  19.2494
    19.4403  19.4660  19.5917  19.7975  19.9039  20.1250  20.2066  20.2252
    20.5514  20.6068  20.9321  21.0033  21.2326  21.3831  21.4395  21.5058
    21.8430  21.9529  22.1211  22.3667  22.3960  22.5353  22.5735  22.5958
    22.8165  22.9186  23.1092  23.2242  23.5453  23.8005  24.0163  24.6522
    25.7431  25.8931  26.1671  27.2371  27.5761  28.0046  28.1693  29.8209
    30.4916  30.6443  31.6348  32.5758  33.2070  33.2275  33.3663  34.2204
    34.5452  34.5486  34.8638  35.1609  35.4969  35.9814  36.0866  36.1730
    36.2905  36.3386  36.7380  37.1893  37.7771  37.8081  37.8343  38.0766
    38.7188  38.9454  39.1432  39.4623  39.7886

          k = 0.0000 0.3789 0.1524 (  5804 PWs)   bands (ev):

   -69.8081 -69.7998 -69.7819 -69.7775 -52.9920 -52.9614 -52.8981 -52.8886
   -52.8655 -52.8578 -52.8506 -52.8334 -31.8406 -31.8348 -31.8317 -31.8313
   -31.8268 -31.8201 -31.8060 -31.8005 -31.7878 -31.7832 -31.7810 -31.7746
   -20.8223 -20.7067 -20.4453 -20.2887 -20.1906 -20.1077 -20.1044 -20.0997
   -20.0580 -20.0338 -19.9498 -19.9067 -19.8332 -19.8094 -19.7411 -19.6976
   -19.6925 -19.6313 -19.6225 -19.5653 -19.5479 -19.5114 -19.5047 -19.5033
    14.3387  14.3896  14.4312  14.4964  14.5122  14.5153  14.6111  14.6132
    14.6924  14.7273  14.8157  14.8705  14.8984  14.9956  14.9985  15.0748
    15.1141  15.1480  15.1639  15.2241  16.7985  17.1363  17.7548  17.9597
    18.1466  18.2999  18.6251  18.7537  18.7626  18.8448  18.9619  19.2161
    19.3007  19.3013  19.5647  19.5904  19.9466  20.0043  20.2196  20.2911
    20.4104  20.8692  21.0359  21.2460  21.2472  21.4362  21.4834  21.6922
    21.9140  21.9322  22.1328  22.3632  22.4349  22.4413  22.5964  22.6294
    22.6557  22.9338  23.0338  23.1184  23.3928  24.0358  24.1295  24.4925
    25.1199  26.2046  26.8990  27.2951  27.3504  27.7743  28.0742  29.4779
    30.5443  31.2514  31.5325  32.2617  32.4116  33.2908  34.0404  34.2598
    34.3139  34.5698  34.9261  35.1946  35.4854  35.5735  36.3627  36.5254
    36.5543  36.8945  37.2266  37.2941  37.4336  37.6881  37.7077  38.1092
    38.7133  38.7481  38.8720  39.3206  39.5066

          k = 0.0000 0.3789-0.3047 (  5816 PWs)   bands (ev):

   -69.8063 -69.8062 -69.7878 -69.7877 -52.9777 -52.9776 -52.8990 -52.8990
   -52.8583 -52.8583 -52.8489 -52.8489 -31.8406 -31.8406 -31.8327 -31.8326
   -31.8245 -31.8245 -31.8093 -31.8092 -31.7850 -31.7850 -31.7830 -31.7830
   -20.7813 -20.7813 -20.3494 -20.3494 -20.1564 -20.1564 -20.1066 -20.1065
   -20.0395 -20.0395 -19.9857 -19.9857 -19.8090 -19.8090 -19.7055 -19.7055
   -19.6215 -19.6215 -19.5925 -19.5925 -19.5615 -19.5615 -19.5027 -19.5027
    14.4060  14.4060  14.4490  14.4490  14.4719  14.4719  14.6300  14.6301
    14.6683  14.6683  14.8930  14.8931  14.9292  14.9293  15.0481  15.0481
    15.1438  15.1438  15.1711  15.1711  16.9310  16.9310  17.9646  17.9646
    18.4340  18.4340  18.5615  18.5615  18.8261  18.8261  18.8963  18.8963
    19.2490  19.2490  19.4566  19.4566  19.9488  19.9488  20.1875  20.1875
    20.7098  20.7098  21.2555  21.2555  21.5108  21.5108  21.7303  21.7303
    21.8955  21.8955  22.3193  22.3193  22.3616  22.3616  22.5851  22.5851
    22.6862  22.6862  23.1088  23.1088  23.5626  23.5626  24.1892  24.1893
    26.1444  26.1444  26.7098  26.7098  27.4705  27.4705  28.9260  28.9260
    30.7388  30.7388  32.2675  32.2675  32.5215  32.5215  33.7745  33.7745
    34.5265  34.5265  35.2995  35.2995  36.1006  36.1006  36.3043  36.3043
    37.0007  37.0007  37.1786  37.1787  37.4677  37.4678  38.2045  38.2045
    38.3122  38.3122  38.9656  38.9656  39.7520

          k =-0.4922-0.2841 0.0000 (  5800 PWs)   bands (ev):

   -69.8047 -69.7960 -69.7906 -69.7681 -52.9779 -52.9433 -52.9121 -52.8860
   -52.8825 -52.8635 -52.8443 -52.8301 -31.8441 -31.8296 -31.8294 -31.8291
   -31.8181 -31.8157 -31.8113 -31.8044 -31.7874 -31.7871 -31.7825 -31.7700
   -20.7379 -20.5576 -20.5134 -20.3458 -20.1387 -20.1345 -20.0968 -20.0291
   -19.9876 -19.9489 -19.9097 -19.9090 -19.8616 -19.8451 -19.8180 -19.8024
   -19.7993 -19.6965 -19.6822 -19.5576 -19.5301 -19.5012 -19.4955 -19.4799
    14.3358  14.3700  14.4678  14.4712  14.4812  14.5050  14.5470  14.7185
    14.7205  14.7637  14.7738  14.7846  14.7976  15.0167  15.0400  15.0643
    15.1075  15.1489  15.1953  15.2517  17.0784  17.5455  17.7531  18.1611
    18.3324  18.5745  18.8888  18.9149  18.9647  19.0174  19.2758  19.3509
    19.4874  19.6415  19.7118  20.0323  20.2574  20.2680  20.2995  20.4803
    20.4878  20.5851  20.6200  20.8812  20.9206  21.1421  21.2178  21.2912
    21.5091  21.6138  21.7008  21.8530  21.9924  22.2975  22.4551  22.5299
    22.5674  22.5820  22.7123  22.9184  23.3407  23.7077  24.0592  24.6327
    24.8635  25.2759  26.0484  27.2044  27.3516  27.6470  28.5947  30.6534
    30.6654  31.0783  32.2205  32.6578  33.4246  33.9688  34.0948  34.1473
    34.9282  35.2576  35.2646  35.3352  35.4588  36.1104  36.1257  36.2226
    36.2498  36.6605  36.6648  36.7138  36.8580  36.9799  38.1705  38.3232
    39.5101  39.5746  39.6822  39.8432  39.8720

          k =-0.4922-0.2841 0.1524 (  5822 PWs)   bands (ev):

   -69.8137 -69.8118 -69.7869 -69.7840 -52.9774 -52.9461 -52.9163 -52.9044
   -52.8684 -52.8670 -52.8555 -52.8403 -31.8404 -31.8392 -31.8359 -31.8284
   -31.8281 -31.8264 -31.8226 -31.8124 -31.7874 -31.7868 -31.7837 -31.7763
   -20.7287 -20.6255 -20.4462 -20.3509 -20.1573 -20.0981 -20.0888 -20.0413
   -20.0291 -19.9753 -19.9506 -19.9082 -19.8949 -19.8827 -19.8144 -19.8067
   -19.7268 -19.6656 -19.6332 -19.5785 -19.5476 -19.5060 -19.5053 -19.5043
    14.3647  14.3835  14.4687  14.4765  14.4792  14.4864  14.5887  14.5948
    14.6032  14.7402  14.8450  14.8920  14.9087  14.9972  15.0142  15.0570
    15.1197  15.1433  15.1832  15.2045  17.1169  17.3910  17.9637  18.2041
    18.3307  18.5397  18.8297  18.9136  18.9261  18.9307  19.3154  19.3490
    19.5115  19.5747  19.7022  19.9961  20.1258  20.3320  20.3368  20.4935
    20.4977  20.6378  20.7374  20.7739  20.9826  21.0893  21.3867  21.4541
    21.6426  21.6787  21.7310  21.9198  22.0154  22.2415  22.4294  22.4339
    22.5408  22.5761  22.6456  22.8670  22.9431  23.0156  24.0684  24.4617
    25.9366  25.9797  26.1314  26.9307  27.2541  27.5439  28.8323  29.4215
    30.2554  31.5800  32.4516  32.5052  33.4002  34.1142  34.2940  34.4095
    34.5645  35.0254  35.0808  35.3928  35.6628  35.7831  35.9474  35.9616
    36.9624  37.0088  37.0345  37.1169  37.1271  37.5841  37.8989  38.3850
    39.0203  39.0525  39.2292  39.8807  39.9397

          k =-0.4922-0.2841-0.3047 (  5804 PWs)   bands (ev):

   -69.7995 -69.7994 -69.7838 -69.7837 -52.9558 -52.9558 -52.9061 -52.9061
   -52.8583 -52.8583 -52.8536 -52.8536 -31.8356 -31.8355 -31.8288 -31.8288
   -31.8188 -31.8187 -31.8070 -31.8069 -31.7861 -31.7861 -31.7831 -31.7831
   -20.6906 -20.6906 -20.3802 -20.3802 -20.1125 -20.1125 -20.0669 -20.0669
   -20.0269 -20.0269 -19.9223 -19.9223 -19.9010 -19.9010 -19.8078 -19.8078
   -19.6355 -19.6355 -19.6002 -19.6002 -19.5481 -19.5481 -19.5048 -19.5048
    14.4299  14.4299  14.4443  14.4444  14.4775  14.4775  14.5275  14.5275
    14.6727  14.6728  14.9178  14.9179  14.9989  14.9990  15.0267  15.0267
    15.1329  15.1329  15.1440  15.1441  17.2248  17.2248  18.2903  18.2903
    18.3147  18.3147  18.7480  18.7480  18.9438  18.9438  19.3927  19.3927
    19.4554  19.4554  19.9868  19.9868  20.0462  20.0462  20.4061  20.4061
    20.5628  20.5628  20.8966  20.8966  21.1343  21.1343  21.5435  21.5435
    21.6241  21.6241  22.0249  22.0249  22.0930  22.0930  22.2373  22.2373
    22.4556  22.4556  22.7190  22.7190  22.7517  22.7517  24.1802  24.1802
    26.3082  26.3082  27.3412  27.3412  27.3800  27.3800  27.9580  27.9580
    31.0055  31.0055  32.7691  32.7691  33.1635  33.1635  34.8255  34.8255
    35.0493  35.0493  35.2188  35.2188  35.4852  35.4852  35.8718  35.8718
    37.2237  37.2237  37.3380  37.3380  37.5656  37.5656  38.4971  38.4972
    38.6812  38.6812  39.1387  39.1387  39.9832

          k =-0.4922 0.0947 0.0000 (  5827 PWs)   bands (ev):

   -69.8149 -69.8021 -69.8005 -69.7857 -52.9857 -52.9409 -52.9216 -52.8944
   -52.8852 -52.8667 -52.8561 -52.8301 -31.8459 -31.8414 -31.8371 -31.8350
   -31.8324 -31.8206 -31.8107 -31.8023 -31.7955 -31.7890 -31.7880 -31.7802
   -20.7317 -20.5565 -20.5141 -20.3550 -20.2263 -20.1344 -20.1129 -20.0054
   -19.9877 -19.9738 -19.8991 -19.8882 -19.8594 -19.8456 -19.8299 -19.8067
   -19.7255 -19.6838 -19.6569 -19.5714 -19.5628 -19.5506 -19.5156 -19.4885
    14.3339  14.3557  14.4362  14.4415  14.5195  14.5588  14.5996  14.7038
    14.7347  14.7496  14.7628  14.7897  14.8044  14.9194  14.9322  15.0223
    15.1843  15.1982  15.2358  15.2792  17.1889  17.5983  17.9810  18.0914
    18.3265  18.5325  18.6370  18.6823  18.7668  19.1327  19.4185  19.4681
    19.5172  19.6637  19.7326  19.8780  20.0854  20.0969  20.2756  20.4057
    20.4884  20.6008  20.7172  20.7424  20.9701  21.1147  21.1840  21.2889
    21.5700  21.6762  21.8349  22.0122  22.0753  22.1113  22.3079  22.4826
    22.7421  22.7518  23.1385  23.2841  23.5540  23.5968  24.2862  24.2955
    24.7611  25.3237  25.4256  26.4963  26.6094  28.7843  29.5846  30.5612
    30.9339  31.3230  32.0009  32.6369  32.6484  33.1062  33.4226  34.4693
    34.5528  34.6392  35.1479  35.2785  35.7076  35.7920  36.2978  36.6337
    36.6417  36.9442  37.0600  37.2890  37.6588  37.7507  38.3812  38.4234
    39.0910  39.1940  39.5340  39.6408  39.8876

          k =-0.4922 0.0947 0.1524 (  5825 PWs)   bands (ev):

   -69.8152 -69.8030 -69.7940 -69.7879 -52.9799 -52.9501 -52.9170 -52.9072
   -52.8711 -52.8606 -52.8550 -52.8369 -31.8430 -31.8382 -31.8375 -31.8357
   -31.8310 -31.8206 -31.8097 -31.8093 -31.7906 -31.7880 -31.7852 -31.7835
   -20.7182 -20.6168 -20.4509 -20.3637 -20.2082 -20.1142 -20.0974 -20.0417
   -20.0103 -19.9733 -19.9597 -19.9356 -19.8748 -19.8569 -19.7732 -19.7532
   -19.7030 -19.6607 -19.6289 -19.5750 -19.5712 -19.5552 -19.5279 -19.5032
    14.3578  14.3756  14.4194  14.4410  14.5269  14.5441  14.5920  14.6297
    14.6750  14.7383  14.8091  14.8629  14.8685  14.8803  14.9917  15.0016
    15.1674  15.1986  15.2091  15.2649  17.2251  17.4817  18.1104  18.1329
    18.3437  18.5773  18.6691  18.7475  18.8006  19.0673  19.1752  19.3322
    19.4299  19.5754  19.7812  19.9189  20.0372  20.1998  20.2692  20.3265
    20.4252  20.6390  20.7288  20.9503  21.0238  21.2685  21.3129  21.4353
    21.5253  21.6760  21.8528  22.0405  22.0781  22.2188  22.3209  22.4679
    22.6586  22.7133  22.9456  23.0444  23.2529  23.6652  23.9580  24.1869
    24.8336  25.2853  25.7780  26.7987  27.9029  28.6474  28.9514  29.9298
    30.4447  31.1672  31.6162  32.1625  32.8327  33.6979  34.0589  34.5313
    34.7742  34.8541  35.1567  35.4248  35.7231  35.9384  36.2007  36.4628
    36.9075  37.0010  37.1603  37.3211  37.7121  37.9856  38.3854  38.5014
    38.6783  39.1324  39.3779  39.5178  39.6634

          k =-0.4922 0.0947-0.3047 (  5824 PWs)   bands (ev):

   -69.8062 -69.8061 -69.7933 -69.7932 -52.9639 -52.9639 -52.9163 -52.9163
   -52.8580 -52.8580 -52.8501 -52.8500 -31.8407 -31.8407 -31.8333 -31.8332
   -31.8248 -31.8248 -31.8092 -31.8092 -31.7902 -31.7902 -31.7870 -31.7869
   -20.6790 -20.6790 -20.3897 -20.3897 -20.1406 -20.1406 -20.0781 -20.0781
   -20.0187 -20.0187 -19.9656 -19.9655 -19.8711 -19.8711 -19.7421 -19.7421
   -19.6479 -19.6479 -19.5967 -19.5967 -19.5612 -19.5612 -19.5442 -19.5442
    14.3962  14.3962  14.4411  14.4411  14.4755  14.4755  14.6196  14.6197
    14.6847  14.6848  14.8432  14.8432  14.9278  14.9278  14.9986  14.9986
    15.1546  15.1547  15.2317  15.2317  17.3267  17.3267  18.1829  18.1829
    18.5378  18.5378  18.7112  18.7112  18.9453  18.9453  19.0541  19.0541
    19.4617  19.4617  19.8588  19.8588  20.1086  20.1087  20.2686  20.2686
    20.5207  20.5207  20.9326  20.9326  21.1805  21.1805  21.5357  21.5357
    21.7368  21.7368  21.9457  21.9457  22.1526  22.1526  22.4546  22.4546
    22.5855  22.5855  22.7466  22.7466  23.2918  23.2918  23.9736  23.9736
    24.9463  24.9463  27.1451  27.1451  28.3977  28.3978  29.0054  29.0054
    30.1497  30.1497  31.7992  31.7992  33.6202  33.6202  34.3681  34.3681
    34.8289  34.8289  35.5001  35.5002  35.9982  35.9982  36.6703  36.6703
    37.0506  37.0506  37.2716  37.2717  37.6504  37.6504  38.1804  38.1804
    38.8411  38.8412  39.1871  39.1872  39.6892

     the Fermi energy is    32.2883 ev

!    total energy              =   -3398.58766414 Ry
     Harris-Foulkes estimate   =   -3398.58766691 Ry
     estimated scf accuracy    <       0.00000315 Ry

     The total energy is the sum of the following terms:

     one-electron contribution =    -606.72654968 Ry
     hartree contribution      =     503.58463858 Ry
     xc contribution           =    -306.28536351 Ry
     ewald contribution        =   -2988.90836500 Ry
     smearing contrib. (-TS)   =      -0.25202453 Ry

     convergence has been achieved in   8 iterations

     Forces acting on atoms (Ry/au):

     atom    1 type  1   force =     0.00000000    0.00000000    0.02348126
     atom    2 type  1   force =     0.00000000    0.00000000    0.02348126
     atom    3 type  1   force =     0.00000000    0.00000000   -0.02348126
     atom    4 type  1   force =     0.00000000    0.00000000   -0.02348126
     atom    5 type  2   force =     0.00000000    0.00000000    0.00000000
     atom    6 type  2   force =     0.00000000    0.00000000    0.00000000
     atom    7 type  2   force =     0.00000000    0.04844693    0.00000000
     atom    8 type  2   force =    -0.04195627    0.02422347    0.00000000
     atom    9 type  2   force =     0.04195627    0.02422347    0.00000000
     atom   10 type  2   force =    -0.04195627   -0.02422347    0.00000000
     atom   11 type  2   force =     0.04195627   -0.02422347    0.00000000
     atom   12 type  2   force =     0.00000000   -0.04844693    0.00000000

     Total force =     0.127625     Total SCF correction =     0.000000


     entering subroutine stress ...

          total   stress  (Ry/bohr**3)                   (kbar)     P=  592.76
   0.00397783   0.00000000   0.00000000        585.16      0.00      0.00
   0.00000000   0.00397783   0.00000000          0.00    585.16      0.00
   0.00000000   0.00000000   0.00413286          0.00      0.00    607.96


     number of scf cycles    =   3
     number of bfgs steps    =   2

     enthalpy old            =   -3398.7582575046 Ry
     enthalpy new            =   -3398.5876641386 Ry

     CASE: enthalpy_new > enthalpy_old

     new trust radius        =       0.1275038804 bohr

     trust_radius < trust_radius_min

     resetting bfgs history

     Message from routine bfgs:
     history already reset at previous step: stopping
     new conv_thr            =       0.0000179128 Ry

     new unit-cell volume =   1423.67800 a.u.^3 (   210.96731 Ang^3 )

CELL_PARAMETERS (alat=  9.92348860)
   1.013679096   0.000000000   0.000000000
  -0.506839548   0.877871848   0.000000000
   0.000000000   0.000000000   1.637144588

ATOMIC_POSITIONS (crystal)
Mg       0.333333000   0.666667000   0.063202672
Mg       0.666667000   0.333333000   0.563202672
Mg       0.666667000   0.333333000   0.936797328
Mg       0.333333000   0.666667000   0.436797328
Zn       0.000000000   0.000000000   0.000000000
Zn       0.000000000   0.000000000   0.500000000
Zn       0.169835247   0.339670495   0.750000000
Zn       0.830164753   0.169835247   0.250000000
Zn       0.339670495   0.169835247   0.250000000
Zn       0.660329505   0.830164753   0.750000000
Zn       0.169835247   0.830164753   0.750000000
Zn       0.830164753   0.660329505   0.250000000



     Writing output data file Prototype-La-hP12-MgZn2.save
[...]

   -69.6606 -69.6592 -69.6493 -69.6292 -52.8524 -52.8236 -52.7190 -52.6857
   -52.6857 -52.6794 -52.6794 -52.6792 -31.6512 -31.6417 -31.6381 -31.6381
   -31.6339 -31.6339 -31.6136 -31.6136 -31.6005 -31.5976 -31.5960 -31.5960
   -20.8665 -20.7402 -20.3030 -20.0876 -20.0876 -20.0495 -20.0495 -19.9811
   -19.9094 -19.9093 -19.7461 -19.7461 -19.6027 -19.5352 -19.5352 -19.3908
   -19.3907 -19.3873 -19.3666 -19.3473 -19.3336 -19.3336 -19.3266 -19.3266
    14.6326  14.6590  14.6591  14.7093  14.7233  14.7233  14.8252  14.8252
    14.8719  14.8719  15.2031  15.2168  15.2303  15.2303  15.3001  15.3002
    15.3683  15.3683  15.3709  15.3709  16.1754  16.5430  17.3096  17.3314
    18.2488  18.2489  18.3087  18.3087  18.3871  18.5156  18.6797  18.6797
    19.2592  19.2593  19.3874  19.5206  19.9556  19.9556  20.0331  20.0331
    21.3393  21.5018  21.5018  22.0197  22.0198  22.0752  22.5510  22.6240
    22.7137  22.7137  22.7302  22.7302  22.9361  22.9371  22.9371  23.0132
    23.0133  24.1781  24.1781  24.5514  24.5514  25.5699  25.5708  26.2299
    26.7598  27.3315  27.8573  27.8574  27.9925  28.2342  28.2342  29.1052
    30.6307  30.6308  30.8632  31.4991  31.6235  31.6235  32.7579  32.9033
    32.9034  34.4764  34.4837  34.4837  35.5408  35.5409  36.0062  36.0062
    36.0300  36.2366  37.2380  37.4052  37.4053  37.5753  37.5753  37.8396
    38.0703  38.1534  38.1535  38.7938  39.6430

          k = 0.0000 0.0000-0.3054 (  6092 PWs)   bands (ev):

   -69.6617 -69.6617 -69.6340 -69.6340 -52.8427 -52.8427 -52.6932 -52.6932
   -52.6818 -52.6818 -52.6817 -52.6817 -31.6478 -31.6477 -31.6332 -31.6332
   -31.6332 -31.6332 -31.6041 -31.6041 -31.6041 -31.6041 -31.5969 -31.5968
   -20.8118 -20.8118 -20.1457 -20.1457 -20.0698 -20.0698 -20.0698 -20.0698
   -19.8399 -19.8399 -19.8398 -19.8398 -19.4774 -19.4774 -19.4451 -19.4451
   -19.4451 -19.4451 -19.3619 -19.3619 -19.3302 -19.3302 -19.3302 -19.3302
    14.6554  14.6555  14.7336  14.7336  14.7336  14.7336  14.7944  14.7944
    14.7944  14.7944  15.2147  15.2147  15.2878  15.2878  15.2878  15.2878
    15.3555  15.3555  15.3555  15.3555  16.3454  16.3454  17.6676  17.6676
    18.0332  18.0332  18.2655  18.2655  18.2655  18.2655  19.0721  19.0721
    19.0721  19.0721  19.3825  19.3825  19.7815  19.7815  19.7815  19.7815
    21.7487  21.7487  21.9779  21.9779  21.9780  21.9780  22.5873  22.5873
    22.6735  22.6735  22.6735  22.6735  22.9851  22.9852  22.9852  22.9852
    24.3354  24.3354  24.3354  24.3354  24.6148  24.6148  25.5703  25.5703
    26.8083  26.8083  27.8659  27.8659  27.8659  27.8659  28.6149  28.6149
    31.2919  31.2919  31.2919  31.2919  31.3745  31.3745  33.8738  33.8738
    33.8813  33.8813  33.8814  33.8814  35.3893  35.3893  35.3894  35.3894
    36.0895  36.0896  37.6344  37.6344  37.6344  37.6345  37.8774  37.8774
    37.9286  37.9287  38.9748  38.9748  38.9749

          k = 0.0000 0.3797 0.0000 (  6090 PWs)   bands (ev):

   -69.6631 -69.6503 -69.6457 -69.6305 -52.8259 -52.7887 -52.7321 -52.7193
   -52.7034 -52.6906 -52.6835 -52.6557 -31.6555 -31.6412 -31.6370 -31.6312
   -31.6290 -31.6264 -31.6189 -31.6062 -31.6037 -31.6035 -31.5949 -31.5901
   -20.6823 -20.4974 -20.3660 -20.1229 -20.0281 -19.9778 -19.9397 -19.9360
   -19.8854 -19.8051 -19.7369 -19.6895 -19.6672 -19.6593 -19.6539 -19.5582
   -19.5268 -19.4789 -19.4752 -19.3663 -19.3541 -19.3395 -19.3279 -19.3202
    14.5337  14.5912  14.6349  14.7494  14.7602  14.7727  14.8112  14.8716
    14.9407  14.9875  15.0264  15.0732  15.0754  15.2385  15.2485  15.2815
    15.3179  15.4083  15.4345  15.4695  16.8992  17.5444  17.6306  18.0781
    18.1811  18.4359  18.7110  18.9073  18.9770  19.0184  19.4017  19.4300
    19.6157  19.6414  19.7752  19.9872  20.0910  20.3140  20.3989  20.4119
    20.7440  20.7941  21.1298  21.2025  21.4334  21.5894  21.6396  21.7065
    22.0428  22.1652  22.3326  22.5781  22.6103  22.7534  22.7913  22.8154
    23.0340  23.1438  23.3288  23.4377  23.7666  24.0245  24.2523  24.8994
    25.9619  26.1159  26.3965  27.4748  27.7946  28.2254  28.3951  30.0554
    30.7176  30.8969  31.8757  32.8078  33.4466  33.4829  33.6110  34.4710
    34.7786  34.8013  35.0917  35.3981  35.7368  36.2249  36.3326  36.4177
    36.5367  36.5539  36.9659  37.4189  37.9898  38.0321  38.0417  38.2712
    38.8798  39.1090  39.3279  39.6738  39.9946

          k = 0.0000 0.3797 0.1527 (  6079 PWs)   bands (ev):

   -69.6579 -69.6511 -69.6384 -69.6273 -52.8169 -52.7956 -52.7317 -52.7257
   -52.6926 -52.6862 -52.6767 -52.6607 -31.6478 -31.6359 -31.6349 -31.6312
   -31.6307 -31.6258 -31.6183 -31.6056 -31.6016 -31.5954 -31.5926 -31.5920
   -20.6673 -20.5537 -20.2924 -20.1357 -20.0348 -19.9404 -19.9391 -19.9335
   -19.8948 -19.8681 -19.7817 -19.7437 -19.6627 -19.6271 -19.5723 -19.5264
   -19.5202 -19.4592 -19.4516 -19.3869 -19.3724 -19.3349 -19.3302 -19.3270
    14.5577  14.6120  14.6537  14.7186  14.7369  14.7399  14.8364  14.8402
    14.9203  14.9564  15.0430  15.1025  15.1314  15.2284  15.2333  15.3101
    15.3494  15.3860  15.3997  15.4625  16.9528  17.2925  17.9189  18.1220
    18.3120  18.4684  18.7982  18.9270  18.9376  19.0202  19.1395  19.3910
    19.4813  19.4817  19.7484  19.7719  20.1307  20.1914  20.4084  20.4789
    20.6067  21.0661  21.2333  21.4469  21.4504  21.6389  21.6912  21.8983
    22.1199  22.1412  22.3407  22.5790  22.6501  22.6564  22.8114  22.8486
    22.8739  23.1532  23.2569  23.3395  23.6062  24.2713  24.3414  24.7357
    25.3506  26.4348  27.1243  27.5325  27.5787  28.0025  28.3031  29.7114
    30.7710  31.5010  31.7724  32.4970  32.6492  33.5470  34.2940  34.5107
    34.5628  34.8140  35.1636  35.4305  35.7326  35.8101  36.5982  36.7497
    36.7908  37.1310  37.4453  37.5310  37.6594  37.9059  37.9382  38.3306
    38.8932  38.9293  39.0826  39.5095  39.7059

          k = 0.0000 0.3797-0.3054 (  6070 PWs)   bands (ev):

   -69.6500 -69.6500 -69.6319 -69.6319 -52.8047 -52.8047 -52.7270 -52.7270
   -52.6820 -52.6820 -52.6744 -52.6744 -31.6376 -31.6376 -31.6328 -31.6328
   -31.6255 -31.6255 -31.6051 -31.6051 -31.5991 -31.5991 -31.5957 -31.5956
   -20.6208 -20.6207 -20.1905 -20.1905 -19.9946 -19.9946 -19.9394 -19.9394
   -19.8647 -19.8646 -19.8133 -19.8132 -19.6273 -19.6273 -19.5373 -19.5373
   -19.4422 -19.4422 -19.4185 -19.4185 -19.3854 -19.3854 -19.3288 -19.3288
    14.6270  14.6270  14.6722  14.6722  14.6957  14.6957  14.8561  14.8561
    14.8961  14.8961  15.1235  15.1236  15.1624  15.1625  15.2830  15.2830
    15.3794  15.3794  15.4094  15.4094  17.0861  17.0861  18.1299  18.1299
    18.6042  18.6042  18.7325  18.7325  19.0013  19.0013  19.0719  19.0719
    19.4275  19.4275  19.6391  19.6391  20.1345  20.1345  20.3752  20.3752
    20.9079  20.9079  21.4578  21.4578  21.7198  21.7198  21.9354  21.9354
    22.1031  22.1031  22.5327  22.5327  22.5774  22.5774  22.8025  22.8025
    22.9015  22.9015  23.3317  23.3317  23.7746  23.7746  24.4259  24.4259
    26.3727  26.3727  26.9409  26.9409  27.7049  27.7049  29.1590  29.1590
    30.9726  30.9726  32.5074  32.5075  32.7708  32.7708  34.0323  34.0323
    34.7654  34.7654  35.5473  35.5473  36.3312  36.3312  36.5304  36.5304
    37.2511  37.2511  37.4095  37.4095  37.6940  37.6941  38.3972  38.3972
    38.5318  38.5319  39.1957  39.1959  39.9554

          k =-0.4933-0.2848 0.0000 (  6072 PWs)   bands (ev):

   -69.6500 -69.6429 -69.6399 -69.6343 -52.8127 -52.7646 -52.7438 -52.7192
   -52.7131 -52.6868 -52.6799 -52.6593 -31.6437 -31.6416 -31.6265 -31.6256
   -31.6247 -31.6235 -31.6226 -31.6036 -31.6010 -31.5993 -31.5932 -31.5928
   -20.5830 -20.4005 -20.3644 -20.1801 -19.9791 -19.9786 -19.9377 -19.8478
   -19.8314 -19.7749 -19.7368 -19.7312 -19.6907 -19.6844 -19.6508 -19.6291
   -19.6254 -19.5260 -19.5101 -19.3782 -19.3447 -19.3375 -19.3284 -19.3060
    14.5559  14.5921  14.6866  14.6923  14.7063  14.7296  14.7707  14.9467
    14.9477  14.9932  15.0039  15.0144  15.0285  15.2499  15.2777  15.3002
    15.3419  15.3831  15.4331  15.4931  17.2320  17.7059  17.9172  18.3244
    18.4991  18.7461  19.0617  19.0903  19.1375  19.1933  19.4513  19.5348
    19.6723  19.8267  19.9012  20.2188  20.4433  20.4595  20.4919  20.6767
    20.6785  20.7749  20.8138  21.0870  21.1144  21.3396  21.4130  21.4940
    21.7018  21.8278  21.9043  22.0604  22.2025  22.5082  22.6717  22.7495
    22.7869  22.7987  22.9286  23.1435  23.5489  23.9224  24.2962  24.8804
    25.0913  25.5118  26.2819  27.4451  27.5644  27.8629  28.8309  30.8819
    30.8915  31.3383  32.4782  32.9023  33.6742  34.2003  34.3385  34.3896
    35.1765  35.5091  35.5177  35.5683  35.6985  36.3471  36.3861  36.4713
    36.4922  36.8939  36.9278  36.9289  37.0925  37.1956  38.3543  38.5001
    39.6666  39.8034  39.8629  40.0396  40.0650

          k =-0.4933-0.2848 0.1527 (  6086 PWs)   bands (ev):

   -69.6570 -69.6498 -69.6460 -69.6311 -52.8113 -52.7731 -52.7441 -52.7439
   -52.6934 -52.6847 -52.6787 -52.6658 -31.6488 -31.6478 -31.6321 -31.6316
   -31.6271 -31.6250 -31.6158 -31.6082 -31.6008 -31.5988 -31.5986 -31.5942
   -20.5762 -20.4692 -20.2877 -20.1868 -19.9911 -19.9414 -19.9274 -19.8689
   -19.8642 -19.8034 -19.7743 -19.7404 -19.7237 -19.7159 -19.6354 -19.6327
   -19.5533 -19.4898 -19.4669 -19.4050 -19.3700 -19.3338 -19.3253 -19.3218
    14.5863  14.6040  14.6904  14.6976  14.7041  14.7103  14.8140  14.8207
    14.8287  14.9701  15.0765  15.1239  15.1413  15.2332  15.2470  15.2929
    15.3550  15.3779  15.4220  15.4432  17.2717  17.5490  18.1309  18.3681
    18.4977  18.7109  19.0053  19.0882  19.1005  19.1063  19.5008  19.5265
    19.6915  19.7520  19.8903  20.1823  20.3149  20.5220  20.5270  20.6912
    20.6958  20.8300  20.9289  20.9760  21.1773  21.2864  21.5857  21.6596
    21.8542  21.8827  21.9314  22.1282  22.2214  22.4534  22.6468  22.6498
    22.7564  22.7906  22.8654  23.0905  23.1550  23.2279  24.3050  24.7043
    26.1700  26.2118  26.3635  27.1565  27.4951  27.7699  29.0649  29.6541
    30.5022  31.8378  32.6852  32.7409  33.6302  34.3669  34.5416  34.6571
    34.8126  35.2750  35.3234  35.6251  35.9052  36.0385  36.1870  36.2137
    37.1849  37.2439  37.2665  37.3586  37.3684  37.8290  38.1099  38.5693
    39.2070  39.2725  39.4408  40.0828  40.1100

          k =-0.4933-0.2848-0.3054 (  6072 PWs)   bands (ev):

   -69.6478 -69.6478 -69.6349 -69.6349 -52.7843 -52.7843 -52.7438 -52.7437
   -52.6856 -52.6856 -52.6752 -52.6752 -31.6397 -31.6397 -31.6332 -31.6332
   -31.6192 -31.6192 -31.6182 -31.6182 -31.5948 -31.5948 -31.5926 -31.5926
   -20.5331 -20.5331 -20.2178 -20.2178 -19.9491 -19.9491 -19.8925 -19.8925
   -19.8719 -19.8719 -19.7665 -19.7665 -19.7315 -19.7315 -19.6322 -19.6322
   -19.4608 -19.4608 -19.4233 -19.4233 -19.3769 -19.3769 -19.3206 -19.3206
    14.6509  14.6509  14.6672  14.6672  14.7019  14.7019  14.7507  14.7508
    14.9009  14.9009  15.1513  15.1513  15.2325  15.2325  15.2627  15.2627
    15.3675  15.3675  15.3804  15.3804  17.3810  17.3810  18.4563  18.4564
    18.4862  18.4862  18.9198  18.9198  19.1195  19.1195  19.5763  19.5763
    19.6324  19.6324  20.1734  20.1734  20.2361  20.2361  20.5969  20.5969
    20.7608  20.7608  21.0929  21.0929  21.3321  21.3321  21.7448  21.7448
    21.8320  21.8320  22.2301  22.2301  22.3032  22.3032  22.4507  22.4507
    22.6705  22.6705  22.9345  22.9345  22.9724  22.9724  24.4173  24.4173
    26.5362  26.5362  27.5734  27.5734  27.6168  27.6168  28.1982  28.1982
    31.2395  31.2395  33.0242  33.0242  33.3928  33.3928  35.0661  35.0661
    35.2827  35.2827  35.4602  35.4602  35.7359  35.7360  36.1022  36.1022
    37.4539  37.4539  37.5572  37.5573  37.8019  37.8019  38.6996  38.6997
    38.8774  38.8774  39.3505  39.3507  40.2164

          k =-0.4933 0.0949 0.0000 (  6078 PWs)   bands (ev):

   -69.6539 -69.6460 -69.6426 -69.6335 -52.8100 -52.7740 -52.7468 -52.7168
   -52.7167 -52.6887 -52.6789 -52.6560 -31.6508 -31.6402 -31.6381 -31.6305
   -31.6219 -31.6212 -31.6193 -31.6092 -31.5998 -31.5977 -31.5933 -31.5908
   -20.5725 -20.3911 -20.3610 -20.1951 -20.0576 -19.9752 -19.9471 -19.8398
   -19.8204 -19.8031 -19.7197 -19.7171 -19.6878 -19.6739 -19.6592 -19.6387
   -19.5429 -19.5067 -19.4806 -19.3960 -19.3807 -19.3727 -19.3375 -19.3041
    14.5537  14.5776  14.6600  14.6635  14.7425  14.7815  14.8252  14.9310
    14.9625  14.9786  14.9919  15.0189  15.0357  15.1500  15.1645  15.2587
    15.4219  15.4370  15.4758  15.5198  17.3443  17.7579  18.1471  18.2578
    18.4945  18.7027  18.8099  18.8554  18.9411  19.3098  19.5958  19.6490
    19.7031  19.8480  19.9210  20.0684  20.2719  20.2853  20.4681  20.5930
    20.6795  20.7936  20.9101  20.9404  21.1649  21.3152  21.3752  21.4879
    21.7804  21.8867  22.0397  22.2264  22.2865  22.3201  22.5210  22.6944
    22.9636  22.9680  23.3645  23.5052  23.7794  23.8150  24.5175  24.5353
    24.9896  25.5502  25.6546  26.7216  26.8368  29.0262  29.8181  30.7894
    31.1712  31.5606  32.2445  32.8813  32.8974  33.3578  33.6690  34.7227
    34.8066  34.8865  35.3987  35.5148  35.9606  36.0351  36.5369  36.8691
    36.8713  37.1873  37.2767  37.5365  37.8796  37.9746  38.5989  38.6169
    39.2853  39.3801  39.7247  39.8494  40.0947

          k =-0.4933 0.0949 0.1527 (  6090 PWs)   bands (ev):

   -69.6544 -69.6505 -69.6477 -69.6392 -52.8048 -52.7804 -52.7498 -52.7408
   -52.6965 -52.6879 -52.6805 -52.6614 -31.6467 -31.6439 -31.6393 -31.6356
   -31.6280 -31.6268 -31.6200 -31.6122 -31.5997 -31.5990 -31.5963 -31.5933
   -20.5642 -20.4607 -20.2906 -20.2035 -20.0430 -19.9551 -19.9342 -19.8751
   -19.8448 -19.8072 -19.7906 -19.7633 -19.7014 -19.6854 -19.6031 -19.5829
   -19.5257 -19.4855 -19.4563 -19.4018 -19.3941 -19.3737 -19.3523 -19.3255
    14.5780  14.5978  14.6412  14.6645  14.7505  14.7675  14.8172  14.8560
    14.9017  14.9672  15.0380  15.0939  15.0990  15.1103  15.2268  15.2368
    15.4055  15.4366  15.4481  15.5051  17.3811  17.6389  18.2793  18.2997
    18.5121  18.7465  18.8422  18.9210  18.9748  19.2451  19.3544  19.5130
    19.6075  19.7581  19.9658  20.1076  20.2279  20.3892  20.4564  20.5174
    20.6136  20.8312  20.9266  21.1476  21.2218  21.4661  21.5134  21.6336
    21.7324  21.8862  22.0618  22.2522  22.2877  22.4287  22.5335  22.6809
    22.8756  22.9320  23.1662  23.2662  23.4726  23.8839  24.1881  24.4242
    25.0631  25.5077  26.0089  27.0304  28.1327  28.8814  29.1883  30.1672
    30.6869  31.4018  31.8503  32.4023  33.0767  33.9483  34.3051  34.7746
    35.0174  35.0910  35.4006  35.6720  35.9647  36.1805  36.4432  36.6984
    37.1405  37.2371  37.3913  37.5502  37.9367  38.2098  38.6082  38.7118
    38.8709  39.3318  39.5764  39.7283  39.8642

          k =-0.4933 0.0949-0.3054 (  6096 PWs)   bands (ev):

   -69.6548 -69.6548 -69.6455 -69.6455 -52.7903 -52.7903 -52.7511 -52.7511
   -52.6849 -52.6849 -52.6789 -52.6789 -31.6421 -31.6421 -31.6409 -31.6409
   -31.6334 -31.6334 -31.6179 -31.6179 -31.6004 -31.6004 -31.5934 -31.5934
   -20.5253 -20.5253 -20.2327 -20.2327 -19.9802 -19.9802 -19.9130 -19.9130
   -19.8536 -19.8536 -19.7996 -19.7995 -19.7016 -19.7016 -19.5726 -19.5726
   -19.4689 -19.4689 -19.4246 -19.4246 -19.3854 -19.3854 -19.3627 -19.3627
    14.6174  14.6174  14.6652  14.6652  14.6977  14.6977  14.8449  14.8450
    14.9126  14.9126  15.0722  15.0722  15.1608  15.1609  15.2328  15.2328
    15.3920  15.3920  15.4708  15.4708  17.4827  17.4827  18.3518  18.3518
    18.7090  18.7090  18.8832  18.8832  19.1212  19.1212  19.2319  19.2319
    19.6394  19.6394  20.0467  20.0467  20.2982  20.2982  20.4572  20.4572
    20.7120  20.7121  21.1285  21.1285  21.3826  21.3826  21.7413  21.7413
    21.9429  21.9429  22.1550  22.1550  22.3598  22.3598  22.6701  22.6701
    22.8012  22.8012  22.9652  22.9652  23.5093  23.5093  24.2064  24.2064
    25.1729  25.1729  27.3787  27.3787  28.6326  28.6326  29.2378  29.2378
    30.3919  30.3919  32.0392  32.0392  33.8576  33.8576  34.6120  34.6120
    35.0625  35.0625  35.7370  35.7370  36.2458  36.2458  36.9055  36.9056
    37.2758  37.2758  37.5051  37.5051  37.8776  37.8776  38.4045  38.4045
    39.0376  39.0377  39.3886  39.3888  39.9112

     the Fermi energy is    32.5324 ev

!    total energy              =   -3398.96389690 Ry
     Harris-Foulkes estimate   =   -3398.96389735 Ry
     estimated scf accuracy    <       0.00000058 Ry

     The total energy is the sum of the following terms:

     one-electron contribution =    -597.62958381 Ry
     hartree contribution      =     500.95689382 Ry
     xc contribution           =    -306.47369802 Ry
     ewald contribution        =   -2995.56611323 Ry
     smearing contrib. (-TS)   =      -0.25139567 Ry

     convergence has been achieved in  11 iterations

     Forces acting on atoms (Ry/au):

     atom    1 type  1   force =     0.00000000    0.00000000    0.01677990
     atom    2 type  1   force =     0.00000000    0.00000000    0.01677990
     atom    3 type  1   force =     0.00000000    0.00000000   -0.01677990
     atom    4 type  1   force =     0.00000000    0.00000000   -0.01677990
     atom    5 type  2   force =     0.00000000    0.00000000    0.00000000
     atom    6 type  2   force =     0.00000000    0.00000000    0.00000000
     atom    7 type  2   force =     0.00000000    0.05215116    0.00000000
     atom    8 type  2   force =    -0.04516423    0.02607558    0.00000000
     atom    9 type  2   force =     0.04516423    0.02607558    0.00000000
     atom   10 type  2   force =    -0.04516423   -0.02607558    0.00000000
     atom   11 type  2   force =     0.04516423   -0.02607558    0.00000000
     atom   12 type  2   force =     0.00000000   -0.05215116    0.00000000

     Total force =     0.132078     Total SCF correction =     0.000000


     entering subroutine stress ...

          total   stress  (Ry/bohr**3)                   (kbar)     P=  740.18
   0.00495323   0.00000000   0.00000000        728.65      0.00      0.00
   0.00000000   0.00495323   0.00000000          0.00    728.65      0.00
   0.00000000   0.00000000   0.00518836          0.00      0.00    763.23


     Writing output data file Prototype-La-hP12-MgZn2.save
 
     init_run     :      6.62s CPU      9.38s WALL (       2 calls)
     electrons    :   1436.59s CPU   1722.34s WALL (       5 calls)
     update_pot   :      2.99s CPU      3.32s WALL (       3 calls)
     forces       :      7.29s CPU      7.54s WALL (       5 calls)
     stress       :     22.56s CPU     23.49s WALL (       5 calls)

     Called by init_run:
     wfcinit      :      5.53s CPU      7.33s WALL (       2 calls)
     potinit      :      0.49s CPU      0.49s WALL (       2 calls)

     Called by electrons:
     c_bands      :   1402.51s CPU   1661.34s WALL (      40 calls)
     sum_band     :     33.59s CPU     45.58s WALL (      40 calls)
     v_of_rho     :      0.11s CPU      0.12s WALL (      45 calls)
     mix_rho      :      0.09s CPU      0.11s WALL (      40 calls)

     Called by c_bands:
     init_us_2    :      1.84s CPU      2.23s WALL (    1104 calls)
     ccgdiagg     :   1276.20s CPU   1499.36s WALL (     574 calls)
     wfcrot       :    129.84s CPU    165.57s WALL (     586 calls)

     Called by *cgdiagg:
     h_psi        :    890.38s CPU   1119.40s WALL (  402358 calls)
     cdiaghg      :      6.99s CPU      7.97s WALL (     586 calls)

     Called by h_psi:
     add_vuspsi   :    166.37s CPU    180.95s WALL (  402358 calls)

     General routines
     calbec       :    389.85s CPU    432.76s WALL (  804250 calls)
     fft          :      0.33s CPU      0.38s WALL (     203 calls)
     fftw         :    476.44s CPU    633.20s WALL ( 1049692 calls)
     davcio       :      1.27s CPU      3.32s WALL (    1584 calls)
 
     Parallel routines
     fft_scatter  :    207.54s CPU    284.48s WALL ( 1049895 calls)
 
     PWSCF        : 24m36.57s CPU    29m29.75s WALL

 
   This run was terminated on:  23:12:12  22Mar2018            

=------------------------------------------------------------------------------=
   JOB DONE.
=------------------------------------------------------------------------------=
