
     Program PWSCF v.5.0.2 starts on 22Mar2018 at 22:42:42 

     This program is part of the open-source Quantum ESPRESSO suite
     for quantum simulation of materials; please cite
         "P. Giannozzi et al., J. Phys.:Condens. Matter 21 395502 (2009);
          URL http://www.quantum-espresso.org", 
     in publications or presentations arising from this work. More details at
     http://www.quantum-espresso.org/quote.php

     Parallel version (MPI), running on     4 processors
     R & G space division:  proc/nbgrp/npool/nimage =       4

     Current dimensions of program PWSCF are:
     Max number of different atomic species (ntypx) = 10
     Max number of k-points (npk) =  40000
     Max angular momentum in pseudopotentials (lmaxx) =  3
     Waiting for input...
     Reading input from standard input

     Subspace diagonalization in iterative solution of the eigenvalue problem:
     a serial algorithm will be used

 
     Parallelization info
     --------------------
     sticks:   dense  smooth     PW     G-vecs:    dense   smooth      PW
     Min         233     233     69                 5311     5311     851
     Max         234     234     70                 5314     5314     854
     Sum         933     933    277                21247    21247    3407
 


     bravais-lattice index     =            0
     lattice parameter (alat)  =       8.5346  a.u.
     unit-cell volume          =     621.6493 (a.u.)^3
     number of atoms/cell      =            8
     number of atomic types    =            2
     number of electrons       =       172.00
     number of Kohn-Sham states=          103
     kinetic-energy cutoff     =      40.0000  Ry
     charge density cutoff     =     160.0000  Ry
     convergence threshold     =      1.0E-04
     mixing beta               =       0.7000
     number of iterations used =            8  plain     mixing
     Exchange-correlation      = SLA-PZ-NOGX-NOGC ( 1 1 0 0 0)
     EXX-fraction              =        0.00
     nstep                     =           50


     celldm(1)=   8.534573  celldm(2)=   0.000000  celldm(3)=   0.000000
     celldm(4)=   0.000000  celldm(5)=   0.000000  celldm(6)=   0.000000

     crystal axes: (cart. coord. in units of alat)
               a(1) = (   1.000000   0.000000   0.000000 )  
               a(2) = (   0.000000   1.000000   0.000000 )  
               a(3) = (   0.000000   0.000000   1.000000 )  

     reciprocal axes: (cart. coord. in units 2 pi/alat)
               b(1) = (  1.000000  0.000000  0.000000 )  
               b(2) = (  0.000000  1.000000  0.000000 )  
               b(3) = (  0.000000  0.000000  1.000000 )  


     PseudoPot. # 1 for Er read from file:
     /home/cwx6513/pp.La/Er.UPF
     MD5 check sum: e152ae21b84514339d8526f066caf99b
     Pseudo is Norm-conserving, Zval = 22.0
     Generated in analytical, separable form
     Using radial grid of 1267 points,  6 beta functions with: 
                l(1) =   0
                l(2) =   0
                l(3) =   1
                l(4) =   1
                l(5) =   2
                l(6) =   3

     PseudoPot. # 2 for Dy read from file:
     /home/cwx6513/pp.La/Dy.UPF
     MD5 check sum: 9597327bec62616a94a14d07f3fd9936
     Pseudo is Norm-conserving, Zval = 20.0
     Generated in analytical, separable form
     Using radial grid of 1265 points,  6 beta functions with: 
                l(1) =   0
                l(2) =   0
                l(3) =   1
                l(4) =   1
                l(5) =   2
                l(6) =   3

     atomic species   valence    mass     pseudopotential
        Cr            22.00    51.99610     Er( 1.00)
        Si            20.00    28.08550     Dy( 1.00)

     48 Sym. Ops., with inversion, found (24 have fractional translation)



   Cartesian axes

     site n.     atom                  positions (alat units)
         1           Cr  tau(   1) = (   0.0000000   0.5000000   0.2500000  )
         2           Cr  tau(   2) = (   0.0000000   0.5000000   0.7500000  )
         3           Cr  tau(   3) = (   0.5000000   0.7500000   0.0000000  )
         4           Cr  tau(   4) = (   0.5000000   0.2500000   0.0000000  )
         5           Cr  tau(   5) = (   0.7500000   0.0000000   0.5000000  )
         6           Cr  tau(   6) = (   0.2500000   0.0000000   0.5000000  )
         7           Si  tau(   7) = (   0.5000000   0.5000000   0.5000000  )
         8           Si  tau(   8) = (   0.0000000   0.0000000   0.0000000  )

     number of k points=    48  gaussian smearing, width (Ry)=  0.1000
                       cart. coord. in units 2pi/alat
        k(    1) = (   0.0000000   0.0000000   0.0000000), wk =   0.0095238
        k(    2) = (   0.0000000   0.0000000   0.1428571), wk =   0.0190476
        k(    3) = (   0.0000000   0.0000000   0.2857143), wk =   0.0190476
        k(    4) = (   0.0000000   0.0000000   0.4285714), wk =   0.0190476
        k(    5) = (   0.0000000   0.1666667   0.0000000), wk =   0.0190476
        k(    6) = (   0.0000000   0.1666667   0.1428571), wk =   0.0380952
        k(    7) = (   0.0000000   0.1666667   0.2857143), wk =   0.0380952
        k(    8) = (   0.0000000   0.1666667   0.4285714), wk =   0.0380952
        k(    9) = (   0.0000000   0.3333333   0.0000000), wk =   0.0190476
        k(   10) = (   0.0000000   0.3333333   0.1428571), wk =   0.0380952
        k(   11) = (   0.0000000   0.3333333   0.2857143), wk =   0.0380952
        k(   12) = (   0.0000000   0.3333333   0.4285714), wk =   0.0380952
        k(   13) = (   0.0000000  -0.5000000   0.0000000), wk =   0.0095238
        k(   14) = (   0.0000000  -0.5000000   0.1428571), wk =   0.0190476
        k(   15) = (   0.0000000  -0.5000000   0.2857143), wk =   0.0190476
        k(   16) = (   0.0000000  -0.5000000   0.4285714), wk =   0.0190476
        k(   17) = (   0.2000000   0.0000000   0.0000000), wk =   0.0190476
        k(   18) = (   0.2000000   0.0000000   0.1428571), wk =   0.0380952
        k(   19) = (   0.2000000   0.0000000   0.2857143), wk =   0.0380952
        k(   20) = (   0.2000000   0.0000000   0.4285714), wk =   0.0380952
        k(   21) = (   0.2000000   0.1666667   0.0000000), wk =   0.0380952
        k(   22) = (   0.2000000   0.1666667   0.1428571), wk =   0.0761905
        k(   23) = (   0.2000000   0.1666667   0.2857143), wk =   0.0761905
        k(   24) = (   0.2000000   0.1666667   0.4285714), wk =   0.0761905
        k(   25) = (   0.2000000   0.3333333   0.0000000), wk =   0.0380952
        k(   26) = (   0.2000000   0.3333333   0.1428571), wk =   0.0761905
        k(   27) = (   0.2000000   0.3333333   0.2857143), wk =   0.0761905
        k(   28) = (   0.2000000   0.3333333   0.4285714), wk =   0.0761905
        k(   29) = (   0.2000000  -0.5000000   0.0000000), wk =   0.0190476
        k(   30) = (   0.2000000  -0.5000000   0.1428571), wk =   0.0380952
        k(   31) = (   0.2000000  -0.5000000   0.2857143), wk =   0.0380952
        k(   32) = (   0.2000000  -0.5000000   0.4285714), wk =   0.0380952
        k(   33) = (   0.4000000   0.0000000   0.0000000), wk =   0.0190476
        k(   34) = (   0.4000000   0.0000000   0.1428571), wk =   0.0380952
        k(   35) = (   0.4000000   0.0000000   0.2857143), wk =   0.0380952
        k(   36) = (   0.4000000   0.0000000   0.4285714), wk =   0.0380952
        k(   37) = (   0.4000000   0.1666667   0.0000000), wk =   0.0380952
        k(   38) = (   0.4000000   0.1666667   0.1428571), wk =   0.0761905
        k(   39) = (   0.4000000   0.1666667   0.2857143), wk =   0.0761905
        k(   40) = (   0.4000000   0.1666667   0.4285714), wk =   0.0761905
        k(   41) = (   0.4000000   0.3333333   0.0000000), wk =   0.0380952
        k(   42) = (   0.4000000   0.3333333   0.1428571), wk =   0.0761905
        k(   43) = (   0.4000000   0.3333333   0.2857143), wk =   0.0761905
        k(   44) = (   0.4000000   0.3333333   0.4285714), wk =   0.0761905
        k(   45) = (   0.4000000  -0.5000000   0.0000000), wk =   0.0190476
        k(   46) = (   0.4000000  -0.5000000   0.1428571), wk =   0.0380952
        k(   47) = (   0.4000000  -0.5000000   0.2857143), wk =   0.0380952
        k(   48) = (   0.4000000  -0.5000000   0.4285714), wk =   0.0380952

     Dense  grid:    21247 G-vectors     FFT dimensions: (  36,  36,  36)

     Largest allocated arrays     est. size (Mb)     dimensions
        Kohn-Sham Wavefunctions         1.07 Mb     (    683,  103)
        NL pseudopotentials             1.67 Mb     (    683,  160)
        Each V/rho on FFT grid          0.18 Mb     (  11664)
        Each G-vector array             0.04 Mb     (   5314)
        G-vector shells                 0.04 Mb     (   5314)
     Largest temporary arrays     est. size (Mb)     dimensions
        Each subspace H/S matrix        0.16 Mb     ( 103, 103)
        Each <psi_i|beta_j> matrix      0.25 Mb     (    160,  103)
        Arrays for rho mixing           1.42 Mb     (  11664,   8)

     Initial potential from superposition of free atoms

     Starting from uniform charge
     Starting wfc are    0 randomized atomic wfcs

     total cpu time spent up to now is        4.3 secs

     Self-consistent Calculation

     iteration #  1     ecut=    40.00 Ry     beta=0.70
     CG style diagonalization
     c_bands:  3 eigenvalues not converged
     c_bands:  5 eigenvalues not converged
     c_bands:  3 eigenvalues not converged
     c_bands:  3 eigenvalues not converged
     c_bands:  5 eigenvalues not converged
     c_bands:  5 eigenvalues not converged
     c_bands:  3 eigenvalues not converged
     c_bands:  3 eigenvalues not converged
     c_bands:  4 eigenvalues not converged
     c_bands:  5 eigenvalues not converged
     c_bands:  3 eigenvalues not converged
     c_bands:  2 eigenvalues not converged
     c_bands:  4 eigenvalues not converged
     c_bands:  2 eigenvalues not converged
     c_bands:  2 eigenvalues not converged
     c_bands:  2 eigenvalues not converged
     c_bands:  5 eigenvalues not converged
     c_bands:  4 eigenvalues not converged
     c_bands:  2 eigenvalues not converged
     c_bands:  3 eigenvalues not converged
     c_bands:  2 eigenvalues not converged
     c_bands:  2 eigenvalues not converged
     c_bands:  3 eigenvalues not converged
     c_bands:  1 eigenvalues not converged
     c_bands:  2 eigenvalues not converged
     c_bands:  1 eigenvalues not converged
     c_bands:  1 eigenvalues not converged
     c_bands:  4 eigenvalues not converged
     c_bands:  3 eigenvalues not converged
     c_bands:  3 eigenvalues not converged
     c_bands:  1 eigenvalues not converged
     c_bands:  2 eigenvalues not converged
     c_bands:  1 eigenvalues not converged
     ethr =  1.00E-02,  avg # of iterations = 12.3

     total cpu time spent up to now is       63.0 secs

     total energy              =   -2275.43226820 Ry
     Harris-Foulkes estimate   =   -2853.38364651 Ry
     estimated scf accuracy    <     739.11961028 Ry

     iteration #  2     ecut=    40.00 Ry     beta=0.70
     CG style diagonalization
     ethr =  1.00E-02,  avg # of iterations =  8.9

     total cpu time spent up to now is      104.8 secs

     total energy              =   -2462.84054340 Ry
     Harris-Foulkes estimate   =   -2513.75005787 Ry
     estimated scf accuracy    <      71.39036539 Ry

     iteration #  3     ecut=    40.00 Ry     beta=0.70
     CG style diagonalization
     ethr =  1.00E-02,  avg # of iterations =  4.6

     total cpu time spent up to now is      127.0 secs

     total energy              =   -2482.94401125 Ry
     Harris-Foulkes estimate   =   -2488.66414039 Ry
     estimated scf accuracy    <      10.56726634 Ry

     iteration #  4     ecut=    40.00 Ry     beta=0.70
     CG style diagonalization
     ethr =  6.14E-03,  avg # of iterations =  3.5

     total cpu time spent up to now is      143.4 secs

     total energy              =   -2485.06849606 Ry
     Harris-Foulkes estimate   =   -2485.33446302 Ry
     estimated scf accuracy    <       0.41266098 Ry

     iteration #  5     ecut=    40.00 Ry     beta=0.70
     CG style diagonalization
     c_bands:  1 eigenvalues not converged
     c_bands:  2 eigenvalues not converged
     c_bands:  1 eigenvalues not converged
     c_bands:  1 eigenvalues not converged
     ethr =  2.40E-04,  avg # of iterations =  4.4

     total cpu time spent up to now is      163.6 secs

     total energy              =   -2485.19112347 Ry
     Harris-Foulkes estimate   =   -2485.27738954 Ry
     estimated scf accuracy    <       0.14603435 Ry

     iteration #  6     ecut=    40.00 Ry     beta=0.70
     CG style diagonalization
     c_bands:  1 eigenvalues not converged
     c_bands:  1 eigenvalues not converged
     c_bands:  1 eigenvalues not converged
     c_bands:  1 eigenvalues not converged
     c_bands:  1 eigenvalues not converged
     c_bands:  1 eigenvalues not converged
     c_bands:  1 eigenvalues not converged
     ethr =  8.49E-05,  avg # of iterations =  3.7

     total cpu time spent up to now is      180.8 secs

     total energy              =   -2485.21689442 Ry
     Harris-Foulkes estimate   =   -2485.21859133 Ry
     estimated scf accuracy    <       0.00260143 Ry

     iteration #  7     ecut=    40.00 Ry     beta=0.70
     CG style diagonalization
     c_bands:  1 eigenvalues not converged
     c_bands:  1 eigenvalues not converged
     c_bands:  1 eigenvalues not converged
     c_bands:  1 eigenvalues not converged
     c_bands:  1 eigenvalues not converged
     c_bands:  1 eigenvalues not converged
     c_bands:  2 eigenvalues not converged
     c_bands:  1 eigenvalues not converged
     c_bands:  1 eigenvalues not converged
     c_bands:  1 eigenvalues not converged
     c_bands:  1 eigenvalues not converged
     c_bands:  1 eigenvalues not converged
     c_bands:  1 eigenvalues not converged
     c_bands:  1 eigenvalues not converged
     c_bands:  1 eigenvalues not converged
     c_bands:  1 eigenvalues not converged
     ethr =  1.51E-06,  avg # of iterations =  4.8

     total cpu time spent up to now is      203.1 secs

     total energy              =   -2485.21819253 Ry
     Harris-Foulkes estimate   =   -2485.21868816 Ry
     estimated scf accuracy    <       0.00074696 Ry

     iteration #  8     ecut=    40.00 Ry     beta=0.70
     CG style diagonalization
     c_bands:  1 eigenvalues not converged
     c_bands:  1 eigenvalues not converged
     ethr =  4.34E-07,  avg # of iterations =  3.8

     total cpu time spent up to now is      219.8 secs

     End of self-consistent calculation

          k = 0.0000 0.0000 0.0000 (  2601 PWs)   bands (ev):

   -52.2821 -52.2821 -52.2226 -51.8305 -51.8305 -51.8305 -35.3019 -35.2683
   -16.1285 -16.1285 -15.9606 -14.6010 -14.6010 -14.6010 -14.1304 -14.1304
   -14.1304 -14.0435 -14.0435 -14.0435 -13.9274 -13.9274 -13.9274 -13.4672
   -13.4672 -13.4672  -2.6323  -2.6323  -2.6323  -2.6252  -2.6252  -2.6252
    26.1025  26.1025  26.2596  27.4401  27.4401  27.4401  29.4969  29.4969
    29.4969  29.5117  29.6896  30.0367  30.2456  30.2456  30.2876  30.2876
    30.2876  32.7086  32.7086  32.7086  33.7128  33.7128  33.7128  33.7849
    33.7849  33.7849  33.9870  33.9870  34.3131  34.3131  34.3131  34.5836
    34.5836  37.7042  37.7042  37.7042  38.0695  38.0695  38.8016  38.8016
    38.8016  42.5918  42.5918  42.5918  46.6381  46.6381  46.6408  50.4450
    50.5437  50.5437  50.5437  52.2297  52.2297  52.2297  52.3668  52.3668
    53.7669  53.7669  53.7669  54.0503  54.0503  54.0503  55.5369  55.5369
    55.5369  55.7321  55.8575  55.8575  55.8575  59.8063  60.8641

          k = 0.0000 0.0000 0.1429 (  2657 PWs)   bands (ev):

   -52.2939 -52.2581 -52.2373 -51.9360 -51.9099 -51.9099 -35.3082 -35.3038
   -16.1643 -16.1218 -15.9407 -14.5993 -14.5993 -14.5734 -14.1731 -14.1731
   -14.1245 -14.0833 -14.0639 -14.0639 -13.9832 -13.9832 -13.9761 -13.6103
   -13.4837 -13.4837  -2.6684  -2.6620  -2.6620  -2.6344  -2.6265  -2.6265
    26.1103  26.2078  26.5766  27.3243  27.5465  27.5465  29.1560  29.4665
    29.4665  29.5640  29.8914  30.2189  30.2636  30.2636  30.2777  30.3171
    30.4043  32.5202  32.5374  32.5374  33.3899  33.3899  33.5312  33.6379
    33.7985  33.7985  33.8703  34.0152  34.1828  34.5479  34.5479  34.7370
    34.8698  37.7966  37.9176  37.9562  37.9562  38.4232  38.5317  38.5317
    38.7842  40.8683  42.9793  42.9793  46.4006  46.4839  48.2772  49.1942
    50.3873  50.6942  50.6942  50.8054  51.8997  51.8997  52.8465  52.8465
    53.2510  53.4811  54.0503  54.3164  54.3164  54.5475  55.6062  55.6653
    55.7106  55.7106  56.4580  56.4581  56.7937  59.3406  60.0317

          k = 0.0000 0.0000 0.2857 (  2677 PWs)   bands (ev):

   -52.2988 -52.2817 -52.2233 -51.9848 -51.9242 -51.9242 -35.3155 -35.3133
   -16.1584 -16.1030 -15.6460 -14.5829 -14.5829 -14.4977 -14.2146 -14.2146
   -14.2034 -14.0695 -14.0433 -14.0433 -14.0412 -14.0127 -14.0127 -13.9984
   -13.4941 -13.4941  -2.6832  -2.6712  -2.6582  -2.6582  -2.6287  -2.6287
    26.1356  26.2349  27.2058  27.7063  27.8020  27.8020  28.4699  29.4086
    29.4086  29.7115  30.1499  30.2292  30.2440  30.2440  30.2856  30.7240
    31.1055  32.1308  32.2273  32.2273  32.6958  32.6958  32.8970  33.2580
    33.4382  33.9779  33.9779  34.1172  34.3304  34.9247  34.9247  35.0874
    35.1207  37.4208  37.4208  37.5878  38.0308  38.4370  38.7146  39.0702
    39.0702  39.0878  43.8261  43.8261  45.7498  46.0790  48.1222  49.1434
    49.9910  49.9910  50.6608  51.1732  51.4384  51.4384  53.2332  53.2332
    53.5248  53.5248  54.1168  54.2314  54.3517  55.1603  55.6479  55.7889
    56.6866  56.6866  57.3767  57.3767  57.8768  58.4116  59.2385

          k = 0.0000 0.0000 0.4286 (  2658 PWs)   bands (ev):

   -52.2833 -52.2606 -52.1334 -52.0501 -51.9127 -51.9127 -35.3099 -35.3071
   -16.1436 -16.1202 -15.1428 -14.5705 -14.5705 -14.5663 -14.3672 -14.2736
   -14.2189 -14.2189 -14.0429 -14.0385 -14.0385 -14.0156 -13.9905 -13.9905
   -13.4874 -13.4874  -2.6838  -2.6715  -2.6476  -2.6476  -2.6293  -2.6293
    26.1843  26.2282  27.3235  27.7398  28.0237  28.0237  29.3180  29.3180
    29.4293  29.9138  30.1059  30.2750  30.3053  30.4817  30.4817  31.0583
    31.4663  31.5330  31.5330  31.5559  32.4786  32.4786  32.6319  33.1477
    33.2319  34.1667  34.1667  34.2506  34.2844  34.3427  35.2678  35.2678
    35.5675  36.3312  36.7107  36.7107  38.3121  38.4457  38.5565  39.1711
    39.6922  39.6922  44.7175  44.7175  45.2823  45.5462  47.9381  48.3258
    48.5537  48.5537  51.8112  51.8112  52.2266  52.4334  52.9274  52.9274
    53.8467  53.8467  54.2102  54.3221  54.7553  55.1958  55.2787  55.4980
    57.5982  57.5982  58.1085  58.1087  58.1310  58.8051  58.8055

          k = 0.0000 0.1667 0.0000 (  2653 PWs)   bands (ev):

   -52.2829 -52.2542 -52.2282 -51.9427 -51.9107 -51.9107 -35.3062 -35.3037
   -16.1633 -16.1114 -15.9119 -14.5923 -14.5923 -14.5521 -14.1799 -14.1799
   -14.1309 -14.0813 -14.0563 -14.0563 -13.9865 -13.9865 -13.9787 -13.6541
   -13.4811 -13.4811  -2.6667  -2.6594  -2.6594  -2.6368  -2.6260  -2.6260
    26.1139  26.2153  26.7180  27.2956  27.5825  27.5825  29.0515  29.4583
    29.4583  29.5828  29.9468  30.2405  30.2559  30.2559  30.2734  30.3717
    30.4724  32.4612  32.4929  32.4929  33.2781  33.2781  33.4791  33.6111
    33.7454  33.8228  33.8228  34.0273  34.2164  34.6084  34.6084  34.7863
    34.9339  37.8283  37.8711  37.9591  37.9591  38.5292  38.5292  38.5343
    38.7775  40.4362  43.1019  43.1019  46.3169  46.4339  48.6859  48.9573
    50.2331  50.7322  50.7322  50.7432  51.6939  51.6939  52.8778  52.8778
    53.3991  53.6709  54.0630  54.1833  54.1833  54.7106  55.6408  55.6962
    55.8866  55.8866  56.5897  56.5897  57.0343  59.1950  59.8834

          k = 0.0000 0.1667 0.1429 (  2662 PWs)   bands (ev):

   -52.2782 -52.2557 -52.2477 -51.9395 -51.9366 -51.9149 -35.3133 -35.3049
   -16.1477 -16.0383 -15.8954 -14.5806 -14.5685 -14.5535 -14.2110 -14.2063
   -14.1200 -14.0865 -14.0688 -14.0337 -14.0131 -13.9989 -13.9625 -13.6771
   -13.6249 -13.4833  -2.6706  -2.6661  -2.6600  -2.6434  -2.6306  -2.6231
    26.1712  26.5728  26.7307  27.3886  27.4895  27.6999  29.0485  29.1909
    29.4764  29.5923  29.9635  30.0884  30.2166  30.4138  30.4979  30.5447
    30.5659  32.0352  32.3279  32.5965  33.0345  33.2263  33.4678  33.5608
    33.5639  33.7022  33.7613  33.9013  34.2946  34.4601  34.8032  35.0574
    35.2047  37.7708  37.7768  38.0791  38.1301  38.2673  38.5509  38.6060
    38.7536  40.7822  41.5327  43.4529  46.2146  47.3881  48.4343  48.9321
    49.1099  50.5048  50.9172  51.0422  51.3585  51.8064  53.1524  53.1662
    53.3213  53.9993  54.3273  54.4681  54.5429  54.8076  55.1793  55.3488
    56.3086  56.4685  56.7119  56.7776  57.5312  58.7962  59.9739

          k = 0.0000 0.1667 0.2857 (  2666 PWs)   bands (ev):

   -52.2824 -52.2589 -52.2009 -51.9884 -51.9449 -51.9188 -35.3122 -35.3113
   -16.1449 -15.9697 -15.6493 -14.5572 -14.5454 -14.4910 -14.2489 -14.2352
   -14.1507 -14.0948 -14.0628 -14.0242 -14.0215 -14.0133 -14.0064 -13.9677
   -13.6790 -13.4853  -2.6782  -2.6615  -2.6584  -2.6490  -2.6407  -2.6295
    26.2020  26.7359  27.3487  27.6146  27.7669  27.9857  28.5397  29.1605
    29.3692  29.6121  29.9958  30.0144  30.3113  30.4728  30.7218  30.9359
    31.1010  31.7378  32.0515  32.2446  32.4517  32.7424  33.0099  33.1262
    33.4330  33.6294  33.7866  33.9412  34.4603  34.6277  35.0913  35.3512
    35.4798  37.0719  37.2554  37.7632  38.3357  38.3615  38.7531  39.0548
    39.1296  39.5617  41.7816  44.2682  45.7104  46.0449  47.7577  49.1343
    49.6253  50.0237  50.9032  51.4480  51.5384  52.2670  53.2967  53.4316
    53.5132  53.8194  54.3916  54.4778  54.9413  55.1151  55.3932  56.3394
    56.4387  56.7197  56.9379  57.4023  58.1694  58.5136  59.4561

          k = 0.0000 0.1667 0.4286 (  2658 PWs)   bands (ev):

   -52.2625 -52.2540 -52.1312 -52.0465 -51.9363 -51.9279 -35.3106 -35.3084
   -16.1480 -15.9727 -15.1437 -14.5861 -14.5378 -14.5088 -14.3758 -14.2821
   -14.2448 -14.1777 -14.1185 -14.0593 -14.0199 -14.0101 -13.9953 -13.9805
   -13.6791 -13.4751  -2.6821  -2.6657  -2.6557  -2.6424  -2.6391  -2.6277
    26.2292  26.7484  27.4370  27.8593  27.8791  28.2403  29.1533  29.2559
    29.4320  29.8038  29.9917  30.1718  30.2418  30.6072  30.8620  31.1146
    31.4063  31.4357  31.4882  31.7611  32.0692  32.3262  32.8063  32.9002
    33.3697  33.7457  33.7848  34.1913  34.3745  34.4434  35.0135  35.3341
    35.8674  36.4133  36.7444  37.0100  38.4941  38.6094  38.7376  39.1338
    39.5348  39.7195  42.8657  44.3116  45.1602  45.3003  47.2928  48.2820
    49.2961  50.2213  51.1685  51.9488  52.5149  52.9425  52.9935  53.1397
    53.6753  53.9346  54.7142  54.7512  54.8057  54.9675  55.5692  55.9297
    56.9673  57.4206  57.6799  57.9313  58.1163  58.7746  59.6584

          k = 0.0000 0.3333 0.0000 (  2677 PWs)   bands (ev):

   -52.2998 -52.2958 -52.1842 -52.0316 -51.9121 -51.9121 -35.3163 -35.3129
   -16.1553 -16.1017 -15.5145 -14.5814 -14.5814 -14.4597 -14.2543 -14.2211
   -14.2211 -14.1640 -14.0610 -14.0454 -14.0454 -14.0073 -14.0073 -13.9972
   -13.5028 -13.5028  -2.6882  -2.6679  -2.6562  -2.6562  -2.6326  -2.6326
    26.1490  26.2366  27.2133  27.8906  27.8906  28.0605  28.3909  29.3802
    29.3802  29.7756  30.1974  30.2073  30.2853  30.2853  30.2929  30.8603
    31.4500  32.0287  32.0287  32.0405  32.4531  32.5616  32.5616  33.1991
    33.3631  34.0484  34.0484  34.1618  34.3490  35.0122  35.0499  35.0499
    35.2312  37.1509  37.1509  37.2382  38.1239  38.1300  38.6729  39.2214
    39.3253  39.3253  44.1446  44.1446  45.5254  45.9048  47.9712  48.8069
    49.4518  49.4518  51.3649  51.4784  51.5884  51.5884  53.1675  53.1675
    53.5598  53.5598  54.2865  54.3658  54.5332  55.2169  55.4368  55.7679
    57.0356  57.0356  57.6797  57.6797  58.1066  58.1549  59.1625

          k = 0.0000 0.3333 0.1429 (  2660 PWs)   bands (ev):

   -52.2685 -52.2532 -52.1791 -52.0050 -51.9393 -51.9216 -35.3102 -35.3092
   -16.1465 -16.0152 -15.4975 -14.5541 -14.5470 -14.4459 -14.2604 -14.2345
   -14.2032 -14.1384 -14.0931 -14.0502 -14.0269 -14.0112 -14.0018 -13.9754
   -13.6257 -13.4775  -2.6814  -2.6578  -2.6540  -2.6450  -2.6418  -2.6286
    26.2059  26.6020  27.3176  27.7702  28.0362  28.0951  28.4352  29.2578
    29.3200  29.6957  30.0121  30.0270  30.2892  30.4946  30.6923  30.9963
    31.3439  31.7760  31.9505  32.0975  32.3167  32.4353  32.7959  33.0877
    33.3763  33.7591  33.8787  34.0311  34.4423  34.7325  35.1592  35.2099
    35.5504  36.8844  37.0778  37.4424  38.2988  38.3534  38.7180  39.1663
    39.3572  39.4213  42.4676  44.4722  45.4723  45.7899  47.6505  49.0325
    49.2159  50.0302  51.0377  51.6207  51.7747  52.2865  53.1767  53.3604
    53.5505  53.6848  54.5293  54.5472  55.1270  55.1343  55.3590  56.0361
    56.8415  56.9163  57.1856  57.6228  58.0682  58.5023  59.3517

          k = 0.0000 0.3333 0.2857 (  2658 PWs)   bands (ev):

   -52.2541 -52.2166 -52.1699 -52.0055 -51.9841 -51.9338 -35.3125 -35.3081
   -16.1503 -15.6790 -15.4977 -14.5141 -14.4822 -14.4485 -14.2729 -14.2717
   -14.2061 -14.1557 -14.1254 -14.0573 -14.0415 -14.0095 -13.9972 -13.9821
   -13.9656 -13.4781  -2.6777  -2.6681  -2.6588  -2.6470  -2.6402  -2.6286
    26.2458  27.4456  27.5763  27.8068  28.1993  28.4152  28.6264  28.8545
    29.0124  29.7148  29.8600  30.2617  30.3174  30.5804  30.9294  31.2382
    31.3941  31.5033  31.7761  31.8786  32.0017  32.4871  32.6401  32.9825
    33.2155  33.2644  33.5792  34.0605  34.0627  34.5802  35.2758  35.4296
    35.8495  36.5937  36.9367  37.7060  38.5615  38.6704  39.1162  39.1728
    39.4365  39.8160  40.5430  43.9638  45.2495  45.2634  46.8139  48.5091
    49.9658  51.2369  51.5664  51.7276  51.9634  53.3285  53.3523  53.5071
    53.5412  53.7888  54.4431  55.0310  55.1596  55.3226  55.7861  56.1933
    56.2053  56.4905  57.5663  57.8481  58.5221  58.8044  59.5186

          k = 0.0000 0.3333 0.4286 (  2654 PWs)   bands (ev):

   -52.2540 -52.1839 -52.1351 -52.0451 -52.0020 -51.9240 -35.3095 -35.3088
   -16.1536 -15.5149 -15.1479 -14.5953 -14.4807 -14.4304 -14.4021 -14.2839
   -14.2689 -14.2180 -14.2155 -14.0847 -14.0652 -14.0461 -13.9872 -13.9826
   -13.9690 -13.4887  -2.6753  -2.6690  -2.6600  -2.6496  -2.6381  -2.6314
    26.2757  27.4831  27.6181  28.2529  28.4035  28.7329  28.8281  29.1097
    29.3220  29.8163  29.9405  30.0070  30.6453  30.7120  30.9607  30.9858
    31.2253  31.3173  31.5628  31.6708  31.9680  32.1514  32.2591  32.7997
    32.8671  33.1992  33.7115  33.7750  34.2280  34.5082  34.7080  35.3026
    36.3150  36.4366  36.8471  38.1299  38.6066  38.8710  39.0371  39.4011
    39.4520  39.7717  40.9270  42.2761  44.7969  46.1426  46.1848  47.6067
    50.6062  51.3512  51.9501  52.3237  52.7047  52.7464  53.3699  53.7059
    54.0742  54.1054  54.2957  54.9550  55.2909  55.6626  55.9159  56.0936
    56.7223  56.7788  57.6868  58.2088  58.5047  59.0055  59.4400

          k = 0.0000-0.5000 0.0000 (  2666 PWs)   bands (ev):

   -52.2809 -52.2809 -52.0968 -52.0968 -51.9153 -51.9153 -35.3108 -35.3108
   -16.1387 -16.1387 -14.8616 -14.8616 -14.5691 -14.5691 -14.3286 -14.3286
   -14.2223 -14.2223 -14.0507 -14.0507 -14.0309 -14.0309 -13.9853 -13.9853
   -13.4882 -13.4882  -2.6833  -2.6833  -2.6500  -2.6500  -2.6317  -2.6317
    26.2091  26.2091  27.4951  27.4951  28.0575  28.0575  29.2974  29.2974
    30.0155  30.0155  30.1410  30.1410  30.5444  30.5444  30.5978  30.5978
    31.3383  31.3383  31.3822  31.3822  32.4698  32.4698  33.1679  33.1679
    33.4541  33.4541  34.1996  34.1996  34.3062  34.3062  35.3370  35.3370
    35.8890  35.8890  36.5833  36.5833  38.4429  38.4429  38.8583  38.8583
    39.7809  39.7809  44.8988  44.8988  45.3386  45.3386  48.0739  48.0739
    48.2897  48.2897  51.8616  51.8616  52.6569  52.6569  52.8574  52.8574
    53.9159  53.9159  54.0287  54.0287  55.1309  55.1309  55.2708  55.2708
    57.7020  57.7020  58.2708  58.2709  58.3831  58.3832  59.2627

          k = 0.0000-0.5000 0.1429 (  2666 PWs)   bands (ev):

   -52.2750 -52.2684 -52.0985 -52.0954 -51.9327 -51.9212 -35.3119 -35.3119
   -16.1421 -16.0174 -14.8696 -14.8640 -14.5427 -14.5339 -14.3499 -14.3165
   -14.2391 -14.1997 -14.1120 -14.0595 -14.0235 -14.0092 -13.9979 -13.9826
   -13.6347 -13.4837  -2.6829  -2.6786  -2.6538  -2.6431  -2.6372  -2.6291
    26.2271  26.6116  27.5078  27.6607  27.9403  28.2218  29.1693  29.2851
    29.8558  29.9579  30.1112  30.1555  30.3676  30.6203  30.6331  30.9080
    31.2799  31.3653  31.4394  31.5016  32.1333  32.4062  32.9475  33.1842
    33.3236  33.6223  33.8991  34.1569  34.2607  34.3856  35.0190  35.3719
    36.0163  36.1797  36.6410  36.7866  38.5021  38.6533  38.8425  38.9753
    39.5901  39.8003  43.7633  43.9829  45.2361  45.2538  47.3963  48.0913
    49.0512  49.8672  51.2671  51.9982  52.7036  52.9503  53.0155  53.0961
    53.6535  53.8714  54.3883  54.7769  54.7854  55.1132  55.4959  55.7836
    57.1697  57.6135  57.8492  57.9519  58.1379  59.1471  59.3741

          k = 0.0000-0.5000 0.2857 (  2658 PWs)   bands (ev):

   -52.2517 -52.2073 -52.0942 -52.0932 -51.9802 -51.9336 -35.3104 -35.3102
   -16.1567 -15.6681 -14.8794 -14.8603 -14.4950 -14.4606 -14.3691 -14.2824
   -14.2784 -14.2008 -14.1528 -14.0735 -14.0302 -13.9942 -13.9906 -13.9890
   -13.9846 -13.4895  -2.6774  -2.6666  -2.6641  -2.6433  -2.6415  -2.6336
    26.2677  27.4292  27.7060  27.8357  28.1458  28.6793  28.8220  29.2474
    29.6360  29.8032  29.9256  30.2738  30.5423  30.7712  30.8794  31.0227
    31.1347  31.1571  31.5065  31.6736  31.9334  32.1697  32.3909  32.7502
    33.0677  33.4377  33.6166  34.1062  34.2884  34.4576  34.6216  35.3400
    36.1599  36.3223  36.7860  37.8457  38.5920  38.7996  39.1632  39.2388
    39.3140  39.8428  41.9422  42.1452  44.8992  46.0594  46.3899  47.5740
    50.5148  51.0622  51.9209  52.3155  52.3422  52.8033  53.3697  53.8896
    54.0737  54.0907  54.2418  54.6791  55.1098  55.5897  55.6335  55.9397
    57.1154  57.2914  57.3668  57.8898  58.5945  59.2825  59.6468

          k = 0.0000-0.5000 0.4286 (  2662 PWs)   bands (ev):

   -52.2687 -52.1497 -52.1010 -52.0968 -52.0422 -51.9201 -35.3125 -35.3124
   -16.1504 -15.1738 -14.8918 -14.8668 -14.5946 -14.4315 -14.4015 -14.3742
   -14.2968 -14.2872 -14.2709 -14.1016 -14.0925 -14.0773 -13.9765 -13.9700
   -13.9656 -13.4982  -2.6802  -2.6792  -2.6647  -2.6555  -2.6330  -2.6326
    26.2983  27.4997  27.5297  28.5701  28.8408  28.9092  29.2441  29.2723
    29.5599  29.8135  30.1532  30.2086  30.4017  30.6980  30.7692  30.8728
    31.1025  31.3325  31.6599  31.7298  31.8557  31.8882  31.9424  32.1437
    32.3444  33.0149  33.9327  33.9512  33.9866  34.3112  34.3701  35.2360
    36.7133  36.9136  36.9408  38.6343  38.7300  38.8084  38.9571  38.9712
    39.7899  39.9045  40.9430  41.0344  44.3602  45.6935  46.8465  47.0612
    51.1741  51.2010  51.6454  52.7587  52.8543  53.4744  53.4874  53.4940
    53.8558  54.2442  54.9649  55.2938  55.4546  55.8609  56.0857  56.5756
    56.8789  57.1964  57.1986  58.2120  58.5738  59.3079  59.5996

          k = 0.2000 0.0000 0.0000 (  2661 PWs)   bands (ev):

   -52.2842 -52.2699 -52.2367 -51.9531 -51.9115 -51.9115 -35.3136 -35.3034
   -16.1614 -16.1021 -15.8566 -14.5895 -14.5895 -14.5357 -14.1949 -14.1949
   -14.1579 -14.0780 -14.0503 -14.0503 -13.9913 -13.9913 -13.9828 -13.7487
   -13.4897 -13.4897  -2.6753  -2.6614  -2.6614  -2.6404  -2.6255  -2.6255
    26.1187  26.2224  26.9514  27.2589  27.6390  27.6390  28.8925  29.4460
    29.4460  29.6133  30.0162  30.2445  30.2445  30.2582  30.2653  30.4655
    30.5998  32.3714  32.4299  32.4299  33.1098  33.1098  33.4091  33.5465
    33.5681  33.8611  33.8611  34.0481  34.2578  34.6954  34.6954  34.8620
    35.0180  37.8017  37.8703  37.8703  37.8786  38.6203  38.6203  38.6987
    38.7651  39.8271  43.2888  43.2888  46.1766  46.3505  48.6470  49.2631
    49.9096  50.7100  50.7100  50.7963  51.4375  51.4375  52.9682  52.9682
    53.6090  53.8890  53.9783  53.9783  54.0904  54.8993  55.6917  55.7208
    56.1254  56.1254  56.7929  56.7930  57.3472  58.9761  59.6626

          k = 0.2000 0.0000 0.1429 (  2667 PWs)   bands (ev):

   -52.2765 -52.2681 -52.2402 -51.9520 -51.9347 -51.9241 -35.3119 -35.3102
   -16.1486 -16.0217 -15.8479 -14.5769 -14.5645 -14.5414 -14.2251 -14.2180
   -14.1250 -14.0869 -14.0655 -14.0351 -14.0214 -14.0000 -13.9658 -13.7642
   -13.6302 -13.4837  -2.6690  -2.6647  -2.6581  -2.6539  -2.6355  -2.6260
    26.1781  26.5833  26.9576  27.3606  27.5398  27.7609  28.9109  29.1913
    29.4727  29.5938  29.9417  30.0992  30.2303  30.4232  30.6027  30.6105
    30.6514  31.9475  32.2639  32.5338  32.9052  33.1089  33.3891  33.4516
    33.5202  33.6652  33.7873  33.8962  34.3412  34.5164  34.8738  35.1535
    35.2659  37.6104  37.6678  38.0304  38.1845  38.3161  38.6542  38.7256
    38.7632  40.3022  41.6648  43.6318  46.1127  47.1235  48.3471  49.0256
    49.2246  50.5588  50.6438  51.1018  51.3362  51.8611  53.1823  53.2757
    53.3994  54.0085  54.3368  54.3602  54.5575  54.9062  55.2379  55.6333
    56.4480  56.5503  56.7609  56.8507  57.8444  58.6154  59.8023

          k = 0.2000 0.0000 0.2857 (  2659 PWs)   bands (ev):

   -52.2674 -52.2465 -52.1948 -51.9822 -51.9536 -51.9222 -35.3101 -35.3095
   -16.1453 -15.9007 -15.6433 -14.5481 -14.5299 -14.4877 -14.2462 -14.2437
   -14.1334 -14.0986 -14.0614 -14.0246 -14.0220 -14.0103 -14.0060 -13.9662
   -13.7532 -13.4810  -2.6764  -2.6602  -2.6533  -2.6433  -2.6433  -2.6308
    26.2114  26.9615  27.4086  27.5739  27.7724  28.0609  28.5766  29.0497
    29.3150  29.5947  29.9826  30.0419  30.3516  30.4740  30.7903  31.0312
    31.1331  31.6619  31.9903  32.2026  32.3644  32.7650  32.9881  33.0367
    33.4592  33.5200  33.6649  33.9416  34.5064  34.5449  35.1356  35.4327
    35.5581  36.9747  37.1951  37.7546  38.3773  38.4414  38.8170  39.0517
    39.1541  39.7290  41.2830  44.4406  45.5758  45.7490  47.5887  49.3365
    49.4511  50.1941  50.9844  51.4801  51.6634  52.5150  53.3342  53.4258
    53.5554  53.9807  54.3906  54.5865  54.7758  55.2139  55.5141  56.2667
    56.5347  56.5381  57.0121  57.6234  58.1048  58.6732  59.4986

          k = 0.2000 0.0000 0.4286 (  2660 PWs)   bands (ev):

   -52.2599 -52.2471 -52.1316 -52.0517 -51.9461 -51.9305 -35.3113 -35.3091
   -16.1504 -15.9052 -15.1493 -14.5871 -14.5279 -14.4944 -14.3804 -14.2875
   -14.2538 -14.1687 -14.1381 -14.0661 -14.0169 -14.0142 -13.9931 -13.9744
   -13.7591 -13.4744  -2.6788  -2.6681  -2.6610  -2.6422  -2.6414  -2.6287
    26.2382  26.9698  27.4793  27.8180  27.9389  28.3318  29.0758  29.2264
    29.4174  29.8016  29.9285  30.2009  30.2468  30.6431  30.9313  31.1541
    31.3609  31.4242  31.4761  31.8342  31.9444  32.2731  32.7838  32.8180
    33.4228  33.6147  33.6560  34.1950  34.2846  34.4722  35.0236  35.3426
    35.8977  36.4016  36.7607  37.2019  38.5287  38.6666  38.8502  39.1091
    39.5077  39.7298  42.3967  43.8972  45.2288  45.3359  47.0661  48.1691
    49.6374  50.6536  51.1419  51.9939  52.5178  52.9044  53.1575  53.2753
    53.6521  54.1363  54.6453  54.7727  54.7889  54.9603  55.6877  55.9917
    56.8687  57.2693  57.6219  57.9818  58.2103  58.8675  59.7556

          k = 0.2000 0.1667 0.0000 (  2672 PWs)   bands (ev):

   -52.2863 -52.2690 -52.2293 -51.9591 -51.9520 -51.9243 -35.3145 -35.3117
   -16.1519 -15.9887 -15.8505 -14.5701 -14.5553 -14.5419 -14.2351 -14.2256
   -14.1194 -14.0918 -14.0653 -14.0381 -14.0231 -14.0166 -13.9653 -13.7670
   -13.6757 -13.4881  -2.6728  -2.6643  -2.6582  -2.6550  -2.6374  -2.6334
    26.1835  26.7246  26.9599  27.3918  27.5189  27.8023  28.9159  29.1091
    29.4847  29.5635  29.9306  30.0921  30.2588  30.4422  30.6469  30.6547
    30.7078  31.8768  32.2173  32.5078  32.8386  33.0985  33.3419  33.3859
    33.5254  33.6204  33.7823  33.8454  34.3793  34.5149  34.9166  35.2243
    35.3120  37.5223  37.6051  38.0604  38.2526  38.2796  38.6890  38.7507
    38.7696  40.4031  41.3168  43.7438  46.0610  47.0008  48.3037  48.9864
    49.3067  50.5054  50.5740  51.1211  51.3941  51.9719  53.2408  53.3684
    53.3820  54.0303  54.3964  54.4068  54.6570  54.7260  55.3623  55.6063
    56.5194  56.6841  56.7262  56.9075  57.9856  58.5096  59.8191

          k = 0.2000 0.1667 0.1429 (  2665 PWs)   bands (ev):

   -52.2651 -52.2552 -52.2404 -51.9571 -51.9493 -51.9231 -35.3121 -35.3100
   -16.0352 -15.9820 -15.8464 -14.5525 -14.5453 -14.5352 -14.2816 -14.1607
   -14.1430 -14.0653 -14.0601 -14.0464 -14.0368 -13.9972 -13.9797 -13.7635
   -13.6802 -13.6238  -2.6689  -2.6630  -2.6605  -2.6527  -2.6371  -2.6325
    26.5871  26.7419  26.9742  27.4984  27.6357  27.7151  28.9522  29.1124
    29.2128  29.6695  29.8667  29.9991  30.3640  30.4576  30.5403  30.8925
    30.9077  31.7143  31.7361  32.8096  32.8617  32.9208  33.2419  33.3763
    33.5196  33.6149  33.6535  33.8847  33.9903  34.7091  34.7954  35.4727
    35.5018  37.4211  37.4687  37.9605  38.4333  38.5095  38.6090  38.6880
    38.7063  40.7762  41.5782  42.0640  46.8775  46.9269  48.5462  48.7272
    49.0170  49.2652  50.0363  51.4613  52.6432  52.7403  53.3670  53.4580
    53.7048  53.7178  54.0174  54.0811  55.3329  55.4044  55.5366  55.9199
    56.1596  56.3402  57.2313  57.5700  58.0545  58.1986  59.9191

          k = 0.2000 0.1667 0.2857 (  2655 PWs)   bands (ev):

   -52.2425 -52.2350 -52.1943 -51.9871 -51.9470 -51.9390 -35.3122 -35.3046
   -15.9841 -15.8961 -15.6534 -14.5278 -14.5117 -14.4752 -14.3007 -14.1715
   -14.1449 -14.0949 -14.0703 -14.0530 -14.0249 -13.9953 -13.9875 -13.9792
   -13.7513 -13.6714  -2.6732  -2.6598  -2.6567  -2.6492  -2.6371  -2.6339
    26.7615  26.9944  27.5647  27.6973  27.8302  27.9582  28.6241  29.0596
    29.2399  29.5744  29.7312  30.0427  30.3360  30.4802  30.7859  31.1296
    31.2710  31.3529  31.5840  32.3947  32.5608  32.7944  32.8654  33.1265
    33.4372  33.4620  33.6288  33.8357  34.0395  34.6312  34.9279  35.6579
    35.7758  37.0264  37.2256  37.6153  38.5858  38.6443  38.6986  38.9100
    39.0934  40.1102  41.6079  42.2306  45.7196  46.0220  47.7115  48.4146
    49.4439  49.9110  50.4324  51.9656  53.0327  53.1815  53.4314  53.5105
    53.8686  54.0352  54.1790  54.3624  55.5819  55.7542  55.7932  56.0771
    56.7999  57.0617  57.2826  57.5606  57.8281  58.7357  59.6227

          k = 0.2000 0.1667 0.4286 (  2655 PWs)   bands (ev):

   -52.2432 -52.2344 -52.1259 -52.0551 -51.9481 -51.9347 -35.3089 -35.3084
   -15.9781 -15.9049 -15.1536 -14.5921 -14.5066 -14.4791 -14.3750 -14.3174
   -14.2064 -14.1880 -14.1080 -14.0903 -14.0151 -14.0074 -13.9943 -13.9823
   -13.7520 -13.6746  -2.6720  -2.6690  -2.6559  -2.6487  -2.6380  -2.6360
    26.7894  27.0111  27.6454  27.9825  28.0487  28.1941  29.1901  29.2803
    29.4821  29.6020  29.6786  30.0947  30.1760  30.4967  30.8837  30.9576
    31.1463  31.4893  31.7286  31.8576  32.2423  32.3070  32.5245  32.9765
    33.2594  33.3285  33.6882  33.9045  34.2885  34.4324  34.9679  35.3275
    36.0985  36.5367  37.0837  37.2807  38.6458  38.7388  38.8561  39.0983
    39.5317  39.5707  42.6066  43.1786  44.0676  44.5448  47.5824  47.8618
    49.8417  50.1555  51.4601  52.0720  53.0301  53.0925  53.3686  53.7342
    54.1925  54.4125  54.5648  55.1416  55.3302  55.4798  56.0273  56.3188
    56.7219  56.8169  57.6755  58.1934  58.3081  58.9677  59.3296

          k = 0.2000 0.3333 0.0000 (  2656 PWs)   bands (ev):

   -52.2654 -52.2461 -52.1715 -52.0044 -51.9460 -51.9190 -35.3108 -35.3071
   -16.1432 -15.8964 -15.4968 -14.5411 -14.5271 -14.4494 -14.2601 -14.2485
   -14.1997 -14.1287 -14.1125 -14.0494 -14.0184 -14.0155 -14.0025 -13.9656
   -13.7544 -13.4810  -2.6802  -2.6587  -2.6559  -2.6436  -2.6404  -2.6271
    26.2218  26.9631  27.4128  27.6883  28.1314  28.1679  28.4838  29.1169
    29.2175  29.6622  29.9312  30.1157  30.3187  30.5258  30.8243  31.1436
    31.3031  31.6562  31.8841  32.0731  32.1489  32.4781  32.8554  32.9269
    33.4295  33.5561  33.6492  34.0227  34.5050  34.5172  35.2174  35.3754
    35.6702  36.7643  37.0230  37.5212  38.4319  38.4780  38.8329  39.1377
    39.3843  39.5468  41.6059  44.7530  45.0184  45.5296  47.3544  48.9835
    49.4554  50.4198  51.1317  51.6601  51.9336  52.7242  53.2657  53.3438
    53.5196  53.9989  54.5456  54.7050  54.8244  55.3292  55.4887  56.2734
    56.5623  56.6678  57.2978  57.9557  57.9601  58.6829  59.4334

          k = 0.2000 0.3333 0.1429 (  2657 PWs)   bands (ev):

   -52.2516 -52.2395 -52.1715 -52.0119 -51.9437 -51.9356 -35.3119 -35.3064
   -16.0243 -15.8970 -15.5033 -14.5262 -14.5167 -14.4411 -14.3030 -14.1997
   -14.1887 -14.1449 -14.1004 -14.0726 -14.0296 -14.0141 -13.9955 -13.9797
   -13.7559 -13.6247  -2.6768  -2.6602  -2.6544  -2.6507  -2.6384  -2.6353
    26.6294  26.9919  27.5283  27.8401  28.0531  28.1591  28.5142  29.1093
    29.3705  29.4704  29.7277  30.1361  30.2755  30.5029  30.8678  31.1383
    31.2584  31.3526  31.7749  32.1804  32.3632  32.5651  32.7671  33.0631
    33.3444  33.5270  33.6434  33.8831  34.1763  34.5368  35.0146  35.5724
    35.8356  36.8321  37.1133  37.5007  38.5720  38.6270  38.7371  39.0365
    39.3129  39.7360  41.8265  42.8719  45.1268  45.7229  47.8693  48.0654
    49.5366  50.0755  50.9267  51.9757  52.8472  53.0330  53.2920  53.4229
    53.9130  54.1267  54.3576  54.6801  55.4845  55.6921  55.8945  56.0798
    56.8621  56.9420  57.3987  57.4947  57.9226  58.8292  59.4849

          k = 0.2000 0.3333 0.2857 (  2656 PWs)   bands (ev):

   -52.2302 -52.2093 -52.1792 -52.0036 -51.9733 -51.9503 -35.3119 -35.3067
   -15.9117 -15.6736 -15.5062 -14.4890 -14.4663 -14.4280 -14.3423 -14.2061
   -14.1768 -14.1564 -14.1250 -14.0779 -14.0442 -14.0190 -14.0001 -13.9914
   -13.9811 -13.7524  -2.6705  -2.6642  -2.6546  -2.6530  -2.6473  -2.6389
    27.0364  27.6891  27.8630  27.8971  28.2062  28.2798  28.6472  28.8788
    29.2586  29.3743  29.7892  30.0469  30.2493  30.3598  30.8098  30.9173
    31.0543  31.6312  31.6572  32.0782  32.2691  32.4373  32.7765  32.9069
    33.2177  33.3653  33.5628  33.6636  34.0716  34.2881  34.7634  35.8958
    36.1722  36.8777  37.0527  37.6413  38.6533  38.8786  38.9762  39.0155
    39.3326  40.1436  40.8882  42.3288  44.2093  45.3480  46.3411  47.8861
    50.1376  50.3878  50.8287  52.6785  53.5491  53.6303  53.8170  53.9970
    54.1171  54.2696  54.7753  54.9377  55.7934  56.0128  56.2188  56.3972
    56.6115  57.1900  57.6234  57.7391  58.2273  58.6231  59.4322

          k = 0.2000 0.3333 0.4286 (  2643 PWs)   bands (ev):

   -52.2111 -52.1828 -52.1209 -52.0416 -51.9802 -51.9508 -35.3065 -35.3042
   -15.9119 -15.5117 -15.1536 -14.5972 -14.4465 -14.4051 -14.3907 -14.3209
   -14.2213 -14.2022 -14.1663 -14.0934 -14.0716 -14.0424 -14.0122 -13.9972
   -13.9858 -13.7446  -2.6665  -2.6617  -2.6589  -2.6503  -2.6418  -2.6364
    27.0713  27.8134  27.9547  28.2959  28.4092  28.6587  29.0140  29.2475
    29.3234  29.5730  29.8236  29.9283  30.1351  30.3231  30.4285  30.7380
    31.1396  31.6448  31.6704  31.7652  31.9346  32.3732  32.4442  32.6446
    32.9650  33.1118  33.3545  33.5907  33.6840  34.6517  34.9372  35.5922
    36.5772  36.7385  37.0922  38.1168  38.6579  38.9454  39.1140  39.2370
    39.4754  39.6990  41.1078  42.5217  43.0056  44.6097  46.0374  46.7951
    50.4251  50.8568  51.7410  52.9525  53.7223  53.7446  54.1286  54.4272
    54.5916  54.7169  55.1071  55.2935  55.4973  56.2571  56.3796  56.5298
    56.9125  57.0995  57.5578  58.0853  58.3959  58.8606  59.3182

          k = 0.2000-0.5000 0.0000 (  2658 PWs)   bands (ev):

   -52.2634 -52.2393 -52.0923 -52.0920 -51.9482 -51.9210 -35.3096 -35.3093
   -16.1470 -15.9040 -14.8726 -14.8617 -14.5257 -14.5051 -14.3599 -14.3004
   -14.2487 -14.1772 -14.1444 -14.0651 -14.0183 -14.0097 -13.9895 -13.9706
   -13.7530 -13.4766  -2.6800  -2.6727  -2.6569  -2.6402  -2.6388  -2.6274
    26.2421  26.9729  27.5318  27.8099  27.8596  28.3749  29.0399  29.2654
    29.8308  29.8465  29.9985  30.2856  30.3197  30.6635  30.7200  31.0633
    31.2286  31.2979  31.4652  31.6609  31.9146  32.3333  32.7513  32.9717
    33.4308  33.6000  33.6635  34.1493  34.2703  34.4276  34.8777  35.3764
    36.0275  36.2385  36.6924  37.1459  38.5417  38.8239  38.8535  39.0607
    39.4692  39.8161  43.0243  43.2037  45.1514  45.5308  47.0049  47.9140
    49.6747  50.7007  51.1204  52.1158  52.6651  52.7590  53.2983  53.3810
    53.6439  54.2318  54.5205  54.5232  54.8506  55.1200  55.6796  55.8842
    57.1008  57.4080  57.5814  58.0453  58.2600  59.2387  59.4811

          k = 0.2000-0.5000 0.1429 (  2658 PWs)   bands (ev):

   -52.2494 -52.2371 -52.0921 -52.0917 -51.9478 -51.9347 -35.3099 -35.3096
   -16.0249 -15.9081 -14.8697 -14.8638 -14.5108 -14.5018 -14.3474 -14.3235
   -14.2252 -14.1963 -14.1132 -14.0868 -14.0115 -14.0034 -13.9940 -13.9869
   -13.7525 -13.6261  -2.6743  -2.6710  -2.6550  -2.6483  -2.6401  -2.6354
    26.6510  27.0041  27.6846  27.8221  28.0248  28.2666  29.1653  29.2892
    29.7261  29.7535  30.0014  30.1244  30.2326  30.3079  30.8611  30.8759
    31.2653  31.2938  31.5748  31.7098  32.2045  32.3754  32.7545  32.7866
    33.2698  33.2766  33.7143  34.0380  34.3673  34.3953  34.9838  35.1340
    36.2329  36.3123  36.9585  37.2465  38.6192  38.7683  38.9490  39.0598
    39.5044  39.6311  43.2040  43.3017  43.9480  44.2974  47.5535  47.9080
    49.8499  50.2120  51.5581  51.8816  52.9053  52.9786  53.6223  53.6692
    54.0795  54.3523  54.8642  54.8740  55.0266  55.3449  56.1281  56.2423
    56.6875  56.7954  57.8151  58.1412  58.8540  59.0198  59.2884

          k = 0.2000-0.5000 0.2857 (  2648 PWs)   bands (ev):

   -52.2200 -52.2064 -52.0878 -52.0856 -51.9616 -51.9478 -35.3072 -35.3068
   -15.9096 -15.6719 -14.8758 -14.8679 -14.4625 -14.4443 -14.3630 -14.3285
   -14.2142 -14.1952 -14.1168 -14.0909 -14.0278 -14.0125 -13.9977 -13.9960
   -13.9812 -13.7491  -2.6687  -2.6642  -2.6588  -2.6464  -2.6445  -2.6376
    27.0603  27.7005  27.9297  28.0332  28.1643  28.5101  29.1099  29.3562
    29.5971  29.7470  29.7556  29.9958  30.1187  30.1653  30.5752  30.7478
    31.3186  31.3724  31.6824  31.8090  32.2292  32.2390  32.3572  32.4370
    33.1345  33.1995  33.2979  33.7486  34.0084  34.5653  35.1830  35.2431
    36.4752  36.5455  37.1934  37.8570  38.6628  38.8854  39.0414  39.2628
    39.4279  39.5699  42.1751  42.4154  43.2334  43.9787  46.7920  46.8588
    50.3960  50.4886  52.0118  52.4610  53.5276  53.8008  54.0066  54.2946
    54.5623  54.6897  55.1247  55.1278  55.3757  55.9126  56.2492  56.5584
    56.7149  57.0756  57.7316  58.1624  58.7220  58.8733  59.4109

          k = 0.2000-0.5000 0.4286 (  2646 PWs)   bands (ev):

   -52.2109 -52.1281 -52.0926 -52.0840 -52.0320 -51.9532 -35.3070 -35.3066
   -15.9212 -15.1740 -14.8880 -14.8698 -14.5925 -14.4150 -14.4079 -14.3468
   -14.2819 -14.2245 -14.2232 -14.0996 -14.0694 -14.0621 -14.0108 -13.9950
   -13.9916 -13.7462  -2.6698  -2.6648  -2.6607  -2.6501  -2.6429  -2.6410
    27.0988  27.8400  27.8699  28.7284  29.0170  29.0326  29.1679  29.3833
    29.5311  29.7746  29.8150  30.0101  30.0425  30.1701  30.2948  30.4770
    31.0500  31.4742  31.6330  31.6607  31.7997  32.0522  32.0855  32.5388
    32.7906  32.9543  33.1305  33.1986  33.4797  34.7592  35.3107  35.3356
    37.0316  37.0365  37.2650  38.6610  38.7375  39.0127  39.0378  39.1805
    39.2776  40.0067  41.0056  41.0577  43.3759  44.7370  45.3095  45.7316
    50.5184  51.7025  52.1294  52.9928  53.4107  54.2456  54.3455  54.7809
    55.0987  55.1003  55.4211  55.5215  55.7481  56.3627  56.4937  56.6088
    57.2234  57.5017  57.5762  57.8305  57.9975  58.4851  59.5015

          k = 0.4000 0.0000 0.0000 (  2657 PWs)   bands (ev):

   -52.2767 -52.2731 -52.1512 -52.0346 -51.9068 -51.9068 -35.3118 -35.3042
   -16.1449 -16.1119 -15.2507 -14.5720 -14.5720 -14.4488 -14.3859 -14.2515
   -14.2219 -14.2219 -14.0434 -14.0376 -14.0376 -14.0047 -13.9965 -13.9965
   -13.4907 -13.4907  -2.6846  -2.6644  -2.6502  -2.6502  -2.6267  -2.6267
    26.1735  26.2330  27.2765  27.8535  27.9926  27.9926  29.0818  29.3351
    29.3351  29.8718  30.1373  30.2747  30.2876  30.4112  30.4112  31.0268
    31.6115  31.6755  31.6755  31.7544  32.3459  32.4901  32.4901  33.1535
    33.2671  34.1376  34.1376  34.2249  34.3504  34.5708  35.2110  35.2110
    35.4587  36.5660  36.8199  36.8199  38.2577  38.2972  38.5964  39.2347
    39.6086  39.6086  44.5673  44.5673  45.3196  45.6513  47.9182  48.4473
    48.7797  48.7797  51.7645  51.7645  51.9881  52.1746  52.9890  52.9890
    53.7700  53.7700  54.2929  54.4924  54.6252  55.2002  55.2637  55.6202
    57.4648  57.4649  58.0023  58.0023  58.1015  58.5827  59.0146

          k = 0.4000 0.0000 0.1429 (  2659 PWs)   bands (ev):

   -52.2652 -52.2587 -52.1433 -52.0369 -51.9304 -51.9280 -35.3113 -35.3081
   -16.1466 -16.0137 -15.2589 -14.5468 -14.5454 -14.4428 -14.3891 -14.2711
   -14.2387 -14.1798 -14.1029 -14.0562 -14.0240 -14.0075 -14.0012 -13.9828
   -13.6313 -13.4750  -2.6824  -2.6659  -2.6543  -2.6443  -2.6368  -2.6269
    26.2189  26.6076  27.3712  27.8746  27.9312  28.1492  29.0811  29.2298
    29.2925  29.7845  30.0203  30.1023  30.2747  30.5569  30.7565  31.1096
    31.4540  31.5790  31.6388  31.9013  32.1832  32.2572  32.6988  32.9975
    33.3407  33.8200  33.8933  34.1444  34.4343  34.5790  35.0449  35.2827
    35.7463  36.5499  36.8181  37.0170  38.4333  38.4539  38.6905  39.1843
    39.5300  39.6312  42.9686  44.8723  44.8954  45.4304  47.4802  48.5704
    49.0534  49.9525  51.1812  51.8475  52.3372  52.6378  53.0624  53.1132
    53.6837  53.7780  54.6542  54.7587  54.8414  55.0988  55.4650  55.8619
    57.0201  57.3361  57.6224  57.9066  57.9928  58.6070  59.4958

          k = 0.4000 0.0000 0.2857 (  2657 PWs)   bands (ev):

   -52.2542 -52.2067 -52.1448 -52.0397 -51.9821 -51.9305 -35.3123 -35.3077
   -16.1550 -15.6735 -15.2621 -14.5094 -14.5046 -14.4212 -14.4049 -14.2779
   -14.2719 -14.1838 -14.1439 -14.0646 -14.0366 -14.0006 -13.9902 -13.9860
   -13.9691 -13.4844  -2.6771  -2.6668  -2.6608  -2.6464  -2.6420  -2.6311
    26.2590  27.4281  27.6615  27.8228  28.2588  28.5702  28.8988  29.0444
    29.1003  29.8196  29.8251  30.1239  30.4504  30.6894  30.9672  31.1459
    31.3444  31.5065  31.5472  31.7222  32.0269  32.1849  32.4878  32.8774
    33.1123  33.3888  33.6049  33.9048  34.1670  34.5412  35.0892  35.3171
    36.0240  36.4464  36.8416  37.7738  38.5809  38.7853  39.0587  39.2178
    39.5368  39.6798  41.0788  43.1513  45.0404  45.6873  46.5473  48.0041
    50.2367  51.3617  51.6378  51.9272  52.4506  52.8898  53.3925  53.7060
    53.8214  53.9257  54.3867  55.0238  55.1578  55.2229  55.9120  56.0425
    56.5744  56.7538  57.6756  58.0567  58.4234  59.0739  59.3211

          k = 0.4000 0.0000 0.4286 (  2657 PWs)   bands (ev):

   -52.2575 -52.1443 -52.1354 -52.0614 -52.0312 -51.9265 -35.3117 -35.3095
   -16.1543 -15.2856 -15.1475 -14.6041 -14.4904 -14.4585 -14.3910 -14.3694
   -14.2992 -14.2660 -14.2550 -14.0991 -14.0700 -14.0658 -13.9828 -13.9728
   -13.9686 -13.4948  -2.6783  -2.6738  -2.6594  -2.6531  -2.6368  -2.6312
    26.2901  27.5128  27.5475  28.6354  28.6849  28.7244  29.0580  29.1613
    29.4172  29.8214  29.9252  30.0659  30.4828  30.7922  30.8527  31.0252
    31.1672  31.2231  31.6334  31.6780  31.8423  32.0695  32.1760  32.4219
    32.6997  32.9673  33.7254  33.8463  34.2538  34.3765  34.4642  35.2634
    36.5572  36.6761  36.8866  38.4796  38.6247  38.9131  38.9938  39.1939
    39.7162  39.7915  40.7173  41.6299  44.5444  45.8734  46.5137  47.3231
    50.8702  51.3849  51.7825  52.7485  52.8594  52.9958  53.4423  53.5535
    53.8056  54.3179  54.7948  55.1272  55.1466  55.9448  56.1801  56.3143
    56.7235  56.7379  57.9227  57.9696  58.6248  58.9305  59.6579

          k = 0.4000 0.1667 0.0000 (  2659 PWs)   bands (ev):

   -52.2614 -52.2539 -52.1432 -52.0377 -51.9364 -51.9309 -35.3103 -35.3093
   -16.1488 -15.9708 -15.2597 -14.5405 -14.5398 -14.4403 -14.3892 -14.2739
   -14.2443 -14.1733 -14.1162 -14.0574 -14.0224 -14.0109 -14.0001 -13.9781
   -13.6806 -13.4741  -2.6817  -2.6652  -2.6557  -2.6429  -2.6398  -2.6280
    26.2252  26.7464  27.4019  27.8403  27.9640  28.2042  29.0796  29.1841
    29.2690  29.7692  29.9681  30.1426  30.2634  30.5789  30.8167  31.1551
    31.4230  31.5434  31.6288  31.9387  32.0980  32.2346  32.7355  32.9274
    33.3742  33.7402  33.7864  34.1427  34.4606  34.5074  35.0775  35.2973
    35.7884  36.5313  36.8192  37.1068  38.4732  38.5038  38.7432  39.1617
    39.5217  39.6385  42.6178  44.6188  45.0055  45.3775  47.3438  48.4975
    49.2761  50.2181  51.1465  51.8699  52.3559  52.7946  53.0815  53.1244
    53.6632  53.8958  54.7407  54.7572  54.8969  54.9398  55.5485  55.9713
    56.8889  57.2367  57.6697  57.8404  58.0996  58.6317  59.5583

          k = 0.4000 0.1667 0.1429 (  2662 PWs)   bands (ev):

   -52.2557 -52.2499 -52.1430 -52.0494 -51.9432 -51.9338 -35.3111 -35.3106
   -16.0244 -15.9698 -15.2645 -14.5362 -14.5281 -14.4384 -14.3906 -14.3012
   -14.2089 -14.1865 -14.1026 -14.0859 -14.0160 -14.0143 -14.0026 -13.9830
   -13.6804 -13.6313  -2.6783  -2.6657  -2.6544  -2.6511  -2.6393  -2.6374
    26.6292  26.7730  27.5169  27.9965  28.0131  28.0973  29.0838  29.2032
    29.3856  29.6159  29.6974  30.1755  30.2181  30.5626  30.8451  31.1234
    31.2406  31.3752  31.8623  31.9204  32.1949  32.3759  32.5604  33.0798
    33.2462  33.5822  33.7817  33.9869  34.2065  34.5419  35.0536  35.3037
    35.9483  36.5976  36.9905  37.1976  38.5871  38.6656  38.6933  39.1269
    39.5185  39.5711  42.7930  43.2275  44.7292  45.0309  47.8985  48.0793
    49.4698  50.0368  51.3295  51.8534  52.8043  52.9806  53.0696  53.4267
    53.9674  54.1390  54.5494  55.0111  55.2334  55.3859  56.0355  56.0991
    56.7267  56.9191  57.5099  58.0249  58.0601  58.8462  59.5478

          k = 0.4000 0.1667 0.2857 (  2650 PWs)   bands (ev):

   -52.2312 -52.2055 -52.1454 -52.0281 -51.9697 -51.9404 -35.3082 -35.3068
   -15.9843 -15.6687 -15.2618 -14.5152 -14.4816 -14.4078 -14.3948 -14.3217
   -14.2076 -14.1759 -14.1271 -14.0792 -14.0376 -14.0107 -13.9939 -13.9889
   -13.9788 -13.6696  -2.6701  -2.6610  -2.6594  -2.6458  -2.6448  -2.6376
    26.8148  27.6222  27.8653  27.8937  28.2736  28.4502  29.0136  29.0917
    29.2326  29.5107  29.7916  30.0693  30.2236  30.4102  30.6898  30.9728
    31.0917  31.6058  31.8035  31.8486  32.0872  32.2840  32.6408  32.8595
    33.1139  33.2112  33.4804  33.8403  33.9864  34.4321  34.9067  35.5717
    36.2429  36.6595  37.0097  37.8120  38.6239  38.9330  38.9894  39.1075
    39.4984  39.6834  41.2793  43.1738  43.3323  45.0394  46.7730  47.4223
    50.3862  50.4628  51.3561  52.6360  53.2650  53.4144  53.8643  53.9741
    54.2419  54.2892  54.9301  55.0723  55.4743  55.9888  56.1153  56.3377
    56.7494  57.1179  57.2913  58.1450  58.3391  58.9527  59.2753

          k = 0.4000 0.1667 0.4286 (  2652 PWs)   bands (ev):

   -52.2231 -52.1521 -52.1298 -52.0490 -52.0249 -51.9514 -35.3092 -35.3081
   -15.9918 -15.2832 -15.1519 -14.6024 -14.4996 -14.4349 -14.3929 -14.3589
   -14.3022 -14.2279 -14.2205 -14.1004 -14.0718 -14.0595 -14.0025 -13.9920
   -13.9876 -13.6722  -2.6714  -2.6688  -2.6598  -2.6525  -2.6431  -2.6398
    26.8499  27.7490  27.7857  28.6427  28.7702  28.9163  28.9990  29.1877
    29.4048  29.7526  29.8727  29.9351  30.1685  30.3283  30.4508  30.6776
    31.0500  31.5763  31.6447  31.6586  31.8338  32.2663  32.4596  32.7469
    32.8353  32.8676  33.0890  33.5284  33.6981  34.8259  34.9105  35.3057
    36.7854  36.8823  36.9942  38.5442  38.6309  38.9713  39.1288  39.2307
    39.3944  39.8654  40.7174  41.7621  43.5262  45.1945  45.8165  46.3756
    50.6142  51.3647  51.6832  53.1290  53.3557  53.7904  53.9259  54.3710
    54.5869  54.9652  55.0767  55.2035  55.5006  56.3341  56.4285  56.5602
    57.0136  57.0805  57.5522  58.0653  58.3898  58.5624  59.3986

          k = 0.4000 0.3333 0.0000 (  2652 PWs)   bands (ev):

   -52.2558 -52.1772 -52.1450 -52.0342 -52.0021 -51.9216 -35.3097 -35.3076
   -16.1515 -15.5198 -15.2594 -14.5004 -14.4868 -14.4201 -14.3969 -14.2827
   -14.2644 -14.2135 -14.2076 -14.0812 -14.0648 -14.0427 -13.9864 -13.9835
   -13.9655 -13.4884  -2.6731  -2.6694  -2.6579  -2.6495  -2.6365  -2.6310
    26.2715  27.4923  27.6017  28.2461  28.4305  28.7170  28.8194  28.9999
    29.0999  29.8062  29.8927  30.0448  30.6000  30.6851  30.9441  31.0291
    31.3301  31.4326  31.5680  31.6824  31.9552  32.2333  32.3177  32.8456
    32.9420  33.2312  33.6675  33.6942  34.1875  34.5380  34.8771  35.3013
    36.2531  36.4507  36.8575  38.0552  38.6017  38.8848  39.0356  39.4407
    39.4944  39.6953  40.7090  42.5846  44.8676  45.9829  46.2655  47.7736
    50.4840  51.4852  51.8905  52.1635  52.5668  52.8648  53.3775  53.6469
    53.9906  54.1729  54.1936  55.0501  55.2652  55.6609  55.9426  56.1461
    56.5550  56.5939  57.7328  58.2836  58.4396  58.9820  59.2439

          k = 0.4000 0.3333 0.1429 (  2654 PWs)   bands (ev):

   -52.2326 -52.1821 -52.1451 -52.0353 -51.9991 -51.9454 -35.3096 -35.3086
   -16.0321 -15.5215 -15.2612 -14.5095 -14.4679 -14.4124 -14.3923 -14.3137
   -14.2210 -14.2186 -14.1880 -14.0907 -14.0682 -14.0471 -14.0019 -13.9955
   -13.9794 -13.6232  -2.6722  -2.6661  -2.6598  -2.6506  -2.6433  -2.6377
    26.6840  27.6615  27.7742  28.2689  28.4288  28.6558  28.9075  29.0963
    29.1077  29.6151  29.8875  30.0364  30.3428  30.4518  30.5404  30.9690
    31.1025  31.6124  31.7016  31.7574  31.9764  32.3716  32.6153  32.8389
    32.9559  33.0660  33.4683  33.7361  33.8742  34.5184  34.9442  35.4132
    36.4187  36.6340  36.9302  38.1168  38.6109  38.9929  39.0342  39.2267
    39.4960  39.7420  40.7991  42.7136  43.6021  45.3501  46.5949  47.0204
    50.6504  50.8654  51.3299  52.8290  53.2364  53.4147  53.7228  54.0716
    54.2147  54.4068  54.7517  55.2296  55.3453  56.1120  56.2188  56.3244
    56.7814  56.9780  57.2723  58.1902  58.3810  58.9317  59.2703

          k = 0.4000 0.3333 0.2857 (  2651 PWs)   bands (ev):

   -52.1934 -52.1753 -52.1447 -52.0320 -51.9993 -51.9760 -35.3083 -35.3078
   -15.6780 -15.5220 -15.2705 -14.5084 -14.4471 -14.3932 -14.3815 -14.3344
   -14.2099 -14.1806 -14.1522 -14.1093 -14.0776 -14.0474 -14.0343 -14.0172
   -14.0103 -13.9873  -2.6643  -2.6615  -2.6593  -2.6540  -2.6535  -2.6468
    27.8257  28.1184  28.2605  28.3275  28.4880  28.5132  29.0079  29.1023
    29.1933  29.4627  29.6840  29.9463  30.0408  30.1238  30.4135  30.5290
    31.0546  31.5352  31.7576  31.8314  31.9230  32.2026  32.3927  32.6636
    32.8795  33.1610  33.3053  33.3841  33.6228  34.1288  35.2449  36.2532
    36.6729  36.9154  37.3407  37.7440  38.8547  38.9795  39.1936  39.3016
    39.4456  39.9421  41.0266  41.8024  43.0974  43.8746  44.9589  46.4161
    50.5178  51.0059  51.7812  53.1035  54.1318  54.4003  54.5223  54.7715
    54.8645  55.0649  55.5317  55.5965  55.9036  56.4458  56.5853  56.8251
    56.9771  57.2854  57.6166  58.0589  58.1572  58.9003  59.2605

          k = 0.4000 0.3333 0.4286 (  2646 PWs)   bands (ev):

   -52.1700 -52.1406 -52.1263 -52.0436 -52.0210 -51.9932 -35.3072 -35.3061
   -15.5249 -15.2760 -15.1599 -14.6111 -14.5110 -14.4307 -14.4096 -14.3381
   -14.2740 -14.1983 -14.1817 -14.1196 -14.0975 -14.0860 -14.0488 -14.0348
   -14.0305 -14.0187  -2.6620  -2.6604  -2.6584  -2.6548  -2.6526  -2.6498
    28.3382  28.4093  28.4499  28.7349  28.8212  28.9114  29.1242  29.2194
    29.3942  29.5140  29.7479  29.8422  29.8965  29.9565  30.0765  30.1842
    31.1492  31.3205  31.4432  31.6213  31.7150  32.0523  32.3606  32.5183
    32.6271  32.8755  32.9956  33.1270  33.2366  33.7094  36.1499  36.5801
    37.0880  37.1357  37.5381  37.8571  39.0814  39.1668  39.3677  39.3993
    39.4380  40.0977  40.8064  41.6869  42.1729  43.2541  43.8280  44.9576
    51.0665  51.7339  52.3346  53.2469  53.9701  54.6758  54.9751  55.4914
    55.5805  55.8677  55.9314  56.2086  56.2506  56.6487  56.7943  56.9912
    57.4416  57.4989  57.7511  57.8509  58.1158  58.4432  58.6743

          k = 0.4000-0.5000 0.0000 (  2650 PWs)   bands (ev):

   -52.2515 -52.1448 -52.0933 -52.0879 -52.0280 -51.9203 -35.3086 -35.3085
   -16.1498 -15.2746 -14.8880 -14.8625 -14.4821 -14.4431 -14.3956 -14.3563
   -14.2930 -14.2722 -14.2665 -14.0884 -14.0778 -14.0628 -13.9752 -13.9700
   -13.9679 -13.4952  -2.6787  -2.6680  -2.6623  -2.6479  -2.6325  -2.6314
    26.2949  27.4954  27.5537  28.6026  28.6985  28.7788  29.1451  29.3246
    29.6040  29.6136  30.1440  30.1792  30.5069  30.7345  30.8601  30.8943
    31.0644  31.2144  31.6186  31.7089  31.9105  31.9573  31.9627  32.3232
    32.5997  32.9412  33.8885  33.9706  34.0836  34.3082  34.4010  35.2527
    36.6254  36.7805  36.8959  38.6195  38.6297  38.8049  39.0479  39.0545
    39.7218  39.8837  41.0241  41.1724  44.4545  45.7831  46.7290  47.1368
    51.1135  51.1746  51.7468  52.6850  52.9081  53.2514  53.5801  53.5889
    53.6891  54.2737  55.0563  55.0768  55.2179  55.8819  56.1112  56.3801
    56.9065  57.1913  57.4028  58.0366  58.6919  59.3651  59.4710

          k = 0.4000-0.5000 0.1429 (  2650 PWs)   bands (ev):

   -52.2263 -52.1488 -52.0899 -52.0880 -52.0249 -51.9432 -35.3083 -35.3078
   -16.0323 -15.2743 -14.8901 -14.8687 -14.4966 -14.4269 -14.4025 -14.3571
   -14.2902 -14.2414 -14.2409 -14.0952 -14.0760 -14.0615 -13.9911 -13.9889
   -13.9776 -13.6209  -2.6754  -2.6679  -2.6628  -2.6512  -2.6374  -2.6352
    26.7089  27.6709  27.7291  28.6268  28.8324  28.8478  29.0868  29.3918
    29.5832  29.6029  29.9774  30.1306  30.2832  30.2898  30.5348  30.6507
    31.0234  31.3823  31.6444  31.6724  31.9154  32.1189  32.1813  32.7082
    32.7471  32.8026  33.3966  33.4386  33.8034  34.7671  34.9633  35.1110
    36.8063  36.8638  37.0432  38.6244  38.6924  38.9395  39.0513  39.1623
    39.4332  39.8573  41.1315  41.1627  43.8234  45.2865  46.1566  46.2199
    50.7774  51.3634  51.8270  52.8178  53.3777  53.6232  53.8465  54.2450
    54.5370  54.7538  55.2058  55.2153  55.4782  56.2240  56.3773  56.6281
    56.8248  57.3426  57.3755  58.2026  58.4557  58.4852  59.5569

          k = 0.4000-0.5000 0.2857 (  2640 PWs)   bands (ev):

   -52.1801 -52.1430 -52.0783 -52.0775 -52.0154 -51.9765 -35.3048 -35.3047
   -15.6834 -15.2712 -14.8839 -14.8742 -14.5024 -14.4141 -14.4107 -14.2957
   -14.2885 -14.1968 -14.1874 -14.1076 -14.0750 -14.0491 -14.0379 -14.0145
   -14.0131 -13.9889  -2.6604  -2.6587  -2.6559  -2.6517  -2.6495  -2.6488
    27.8632  28.1705  28.2281  28.7053  28.9255  28.9755  29.1677  29.4544
    29.5487  29.5768  29.7346  29.7648  29.8775  30.0806  30.0948  30.2658
    31.3149  31.4367  31.5145  31.5924  31.7087  31.8997  32.1537  32.5231
    32.7923  32.9264  32.9395  33.1931  33.2257  34.1659  35.9908  36.0276
    37.0749  37.0863  37.5274  38.1803  38.8731  39.0882  39.2221  39.3694
    39.3842  39.9071  41.1758  41.4826  42.4866  43.3979  44.6073  45.1475
    50.7409  51.6077  52.5016  53.2955  53.6549  54.7078  54.8556  55.2625
    55.5572  55.5908  55.6646  56.0161  56.0940  56.4508  56.8265  56.8909
    57.1627  57.5394  57.5877  57.8867  57.9752  58.5700  59.1442

          k = 0.4000-0.5000 0.4286 (  2640 PWs)   bands (ev):

   -52.1312 -52.1179 -52.0803 -52.0751 -52.0328 -52.0249 -35.3045 -35.3044
   -15.2777 -15.1674 -14.8887 -14.8862 -14.6143 -14.5103 -14.4254 -14.4235
   -14.2230 -14.2029 -14.1587 -14.1519 -14.1156 -14.1033 -14.0504 -14.0440
   -14.0431 -14.0392  -2.6597  -2.6593  -2.6573  -2.6553  -2.6497  -2.6492
    28.7319  28.7556  28.8983  28.9586  29.0442  29.1750  29.2758  29.4007
    29.5655  29.5721  29.7171  29.7215  29.8293  29.8440  29.8542  29.9516
    31.0442  31.0473  31.3585  31.4179  31.6546  31.6916  32.2529  32.4145
    32.4861  32.5955  32.7958  32.8576  33.0582  33.1275  37.0735  37.0771
    37.3511  37.3636  37.7527  37.8124  39.2631  39.2675  39.3747  39.3760
    39.9838  40.2461  41.1469  41.4644  41.6411  42.0259  43.1179  43.3466
    52.0429  52.2967  53.0727  53.4167  53.8254  54.1599  55.2542  55.5695
    55.9463  56.0515  56.3084  56.3169  57.0178  57.0627  57.1821  57.2972
    57.4945  57.5170  57.9483  57.9683  58.1461  58.3434  58.7764

     the Fermi energy is    53.1615 ev

!    total energy              =   -2485.21838968 Ry
     Harris-Foulkes estimate   =   -2485.21840345 Ry
     estimated scf accuracy    <       0.00001676 Ry

     The total energy is the sum of the following terms:

     one-electron contribution =      -7.14526551 Ry
     hartree contribution      =     246.51863773 Ry
     xc contribution           =    -224.89151703 Ry
     ewald contribution        =   -2499.36066235 Ry
     smearing contrib. (-TS)   =      -0.33958252 Ry

     convergence has been achieved in   8 iterations

     Forces acting on atoms (Ry/au):

     atom    1 type  1   force =     0.00000000    0.00000000    0.00000000
     atom    2 type  1   force =     0.00000000    0.00000000    0.00000000
     atom    3 type  1   force =     0.00000000    0.00000000    0.00000000
     atom    4 type  1   force =     0.00000000    0.00000000    0.00000000
     atom    5 type  1   force =     0.00000000    0.00000000    0.00000000
     atom    6 type  1   force =     0.00000000    0.00000000    0.00000000
     atom    7 type  2   force =     0.00000000    0.00000000    0.00000000
     atom    8 type  2   force =     0.00000000    0.00000000    0.00000000

     Total force =     0.000000     Total SCF correction =     0.000000


     entering subroutine stress ...

          total   stress  (Ry/bohr**3)                   (kbar)     P= 5882.27
   0.03998685   0.00000000   0.00000000       5882.27      0.00      0.00
   0.00000000   0.03998685   0.00000000          0.00   5882.27      0.00
   0.00000000   0.00000000   0.03998685          0.00      0.00   5882.27


     BFGS Geometry Optimization

     number of scf cycles    =   1
     number of bfgs steps    =   0

     enthalpy new            =   -2485.2183896810 Ry

     new trust radius        =       0.5000000000 bohr
     new conv_thr            =       0.0001000000 Ry

     new unit-cell volume =    828.02266 a.u.^3 (   122.70030 Ang^3 )

CELL_PARAMETERS (alat=  8.53457320)
   1.100269143   0.000000000   0.000000000
   0.000000000   1.100269143   0.000000000
   0.000000000   0.000000000   1.100269143

ATOMIC_POSITIONS (crystal)
Cr       0.000000000   0.500000000   0.250000000
Cr       0.000000000   0.500000000   0.750000000
Cr       0.500000000   0.750000000   0.000000000
Cr       0.500000000   0.250000000   0.000000000
Cr       0.750000000   0.000000000   0.500000000
Cr       0.250000000   0.000000000   0.500000000
Si       0.500000000   0.500000000   0.500000000
Si       0.000000000   0.000000000   0.000000000



     Writing output data file Prototype-La-cP8-Cr3Si.save
     NEW-OLD atomic charge density approx. for the potential
     NEW k-points:
        k(    1) = (   0.0000000   0.0000000   0.0000000), wk =   0.0095238
        k(    2) = (   0.0000000   0.0000000   0.1298384), wk =   0.0190476
        k(    3) = (   0.0000000   0.0000000   0.2596767), wk =   0.0190476
        k(    4) = (   0.0000000   0.0000000   0.3895151), wk =   0.0190476
        k(    5) = (   0.0000000   0.1514781   0.0000000), wk =   0.0190476
        k(    6) = (   0.0000000   0.1514781   0.1298384), wk =   0.0380952
        k(    7) = (   0.0000000   0.1514781   0.2596767), wk =   0.0380952
        k(    8) = (   0.0000000   0.1514781   0.3895151), wk =   0.0380952
        k(    9) = (   0.0000000   0.3029562   0.0000000), wk =   0.0190476
        k(   10) = (   0.0000000   0.3029562   0.1298384), wk =   0.0380952
        k(   11) = (   0.0000000   0.3029562   0.2596767), wk =   0.0380952
        k(   12) = (   0.0000000   0.3029562   0.3895151), wk =   0.0380952
        k(   13) = (   0.0000000  -0.4544343   0.0000000), wk =   0.0095238
        k(   14) = (   0.0000000  -0.4544343   0.1298384), wk =   0.0190476
        k(   15) = (   0.0000000  -0.4544343   0.2596767), wk =   0.0190476
        k(   16) = (   0.0000000  -0.4544343   0.3895151), wk =   0.0190476
        k(   17) = (   0.1817737   0.0000000   0.0000000), wk =   0.0190476
        k(   18) = (   0.1817737   0.0000000   0.1298384), wk =   0.0380952
        k(   19) = (   0.1817737   0.0000000   0.2596767), wk =   0.0380952
        k(   20) = (   0.1817737   0.0000000   0.3895151), wk =   0.0380952
        k(   21) = (   0.1817737   0.1514781   0.0000000), wk =   0.0380952
        k(   22) = (   0.1817737   0.1514781   0.1298384), wk =   0.0761905
        k(   23) = (   0.1817737   0.1514781   0.2596767), wk =   0.0761905
        k(   24) = (   0.1817737   0.1514781   0.3895151), wk =   0.0761905
        k(   25) = (   0.1817737   0.3029562   0.0000000), wk =   0.0380952
        k(   26) = (   0.1817737   0.3029562   0.1298384), wk =   0.0761905
        k(   27) = (   0.1817737   0.3029562   0.2596767), wk =   0.0761905
        k(   28) = (   0.1817737   0.3029562   0.3895151), wk =   0.0761905
        k(   29) = (   0.1817737  -0.4544343   0.0000000), wk =   0.0190476
        k(   30) = (   0.1817737  -0.4544343   0.1298384), wk =   0.0380952
        k(   31) = (   0.1817737  -0.4544343   0.2596767), wk =   0.0380952
        k(   32) = (   0.1817737  -0.4544343   0.3895151), wk =   0.0380952
        k(   33) = (   0.3635474   0.0000000   0.0000000), wk =   0.0190476
        k(   34) = (   0.3635474   0.0000000   0.1298384), wk =   0.0380952
        k(   35) = (   0.3635474   0.0000000   0.2596767), wk =   0.0380952
        k(   36) = (   0.3635474   0.0000000   0.3895151), wk =   0.0380952
        k(   37) = (   0.3635474   0.1514781   0.0000000), wk =   0.0380952
        k(   38) = (   0.3635474   0.1514781   0.1298384), wk =   0.0761905
        k(   39) = (   0.3635474   0.1514781   0.2596767), wk =   0.0761905
        k(   40) = (   0.3635474   0.1514781   0.3895151), wk =   0.0761905
        k(   41) = (   0.3635474   0.3029562   0.0000000), wk =   0.0380952
        k(   42) = (   0.3635474   0.3029562   0.1298384), wk =   0.0761905
        k(   43) = (   0.3635474   0.3029562   0.2596767), wk =   0.0761905
        k(   44) = (   0.3635474   0.3029562   0.3895151), wk =   0.0761905
        k(   45) = (   0.3635474  -0.4544343   0.0000000), wk =   0.0190476
        k(   46) = (   0.3635474  -0.4544343   0.1298384), wk =   0.0380952
        k(   47) = (   0.3635474  -0.4544343   0.2596767), wk =   0.0380952
        k(   48) = (   0.3635474  -0.4544343   0.3895151), wk =   0.0380952

     total cpu time spent up to now is      225.5 secs

     Self-consistent Calculation

     iteration #  1     ecut=    40.00 Ry     beta=0.70
     CG style diagonalization
     c_bands:  5 eigenvalues not converged
     c_bands:  1 eigenvalues not converged
     c_bands:  1 eigenvalues not converged
     c_bands:  1 eigenvalues not converged
     c_bands:  1 eigenvalues not converged
     c_bands:  2 eigenvalues not converged
     ethr =  1.00E-06,  avg # of iterations = 21.5

     total cpu time spent up to now is      317.9 secs

     total energy              =   -2475.06910727 Ry
     Harris-Foulkes estimate   =   -2510.99647872 Ry
     estimated scf accuracy    <      45.35351643 Ry

     iteration #  2     ecut=    40.00 Ry     beta=0.70
     CG style diagonalization
     ethr =  1.00E-02,  avg # of iterations =  4.0

     total cpu time spent up to now is      336.0 secs

     total energy              =   -2488.23458098 Ry
     Harris-Foulkes estimate   =   -2491.76985181 Ry
     estimated scf accuracy    <       5.17676546 Ry

     iteration #  3     ecut=    40.00 Ry     beta=0.70
     CG style diagonalization
     ethr =  3.01E-03,  avg # of iterations =  3.7

     total cpu time spent up to now is      352.9 secs

     total energy              =   -2489.56446403 Ry
     Harris-Foulkes estimate   =   -2489.63423176 Ry
     estimated scf accuracy    <       0.11586331 Ry

     iteration #  4     ecut=    40.00 Ry     beta=0.70
     CG style diagonalization
     ethr =  6.74E-05,  avg # of iterations =  3.8

     total cpu time spent up to now is      370.4 secs

     total energy              =   -2489.60613320 Ry
     Harris-Foulkes estimate   =   -2489.60856449 Ry
     estimated scf accuracy    <       0.00391377 Ry

     iteration #  5     ecut=    40.00 Ry     beta=0.70
     CG style diagonalization
     c_bands:  1 eigenvalues not converged
     c_bands:  1 eigenvalues not converged
     ethr =  2.28E-06,  avg # of iterations =  4.1

     total cpu time spent up to now is      389.7 secs

     total energy              =   -2489.60692193 Ry
     Harris-Foulkes estimate   =   -2489.60703110 Ry
     estimated scf accuracy    <       0.00015262 Ry

     iteration #  6     ecut=    40.00 Ry     beta=0.70
     CG style diagonalization
     ethr =  8.87E-08,  avg # of iterations =  4.1

     total cpu time spent up to now is      407.2 secs

     End of self-consistent calculation

          k = 0.0000 0.0000 0.0000 (  2601 PWs)   bands (ev):

   -63.5745 -63.5745 -63.2713 -63.1773 -63.1773 -63.1773 -46.2266 -46.1575
   -26.7444 -26.7444 -26.7101 -26.0614 -26.0614 -26.0614 -25.9269 -25.9269
   -25.9269 -25.8338 -25.8338 -25.8338 -25.8116 -25.8116 -25.8116 -25.7254
   -25.7254 -25.7254 -13.4931 -13.4931 -13.4931 -13.4726 -13.4726 -13.4726
    16.6513  16.6513  16.6848  17.8135  17.8135  17.8135  18.9209  18.9209
    18.9209  19.1668  19.4262  19.6355  19.6355  19.7354  19.7354  19.7354
    20.3461  20.8006  20.8006  20.8006  21.4456  21.4456  21.5031  21.5031
    21.5031  21.5190  21.5190  21.5190  22.1111  22.1111  22.1111  24.4668
    24.4668  26.7836  26.7836  26.7836  26.7916  26.7916  26.8845  26.8845
    26.8845  29.6598  29.6598  29.6598  32.1429  32.4053  32.4053  36.8120
    36.8120  36.8120  36.8509  36.8509  38.1509  38.3224  38.3224  38.3224
    39.6685  39.6685  39.6685  41.3258  42.2080  42.2080  42.2080  42.3214
    42.3214  42.3214  44.6625  44.6625  44.6625  45.3238  47.9605

          k = 0.0000 0.0000 0.1298 (  2657 PWs)   bands (ev):

   -63.5965 -63.5363 -63.3853 -63.3605 -63.3605 -63.3265 -46.2719 -46.2332
   -26.7874 -26.7803 -26.7234 -26.0636 -26.0636 -26.0551 -25.9348 -25.9348
   -25.9007 -25.8925 -25.8925 -25.8815 -25.8635 -25.8635 -25.8587 -25.7860
   -25.7451 -25.7451 -13.5220 -13.5220 -13.5180 -13.4967 -13.4966 -13.4966
    16.6524  16.6786  16.9158  17.7587  17.8699  17.8699  18.7537  18.9447
    18.9447  19.1952  19.5386  19.6588  19.6873  19.6873  19.6962  19.7284
    20.5186  20.7237  20.7600  20.7600  21.2796  21.2952  21.2952  21.3274
    21.5244  21.5244  21.5888  21.6394  21.8385  22.2112  22.2112  24.4979
    24.5588  26.6682  26.6682  26.6685  26.8024  26.8963  26.9252  26.9252
    26.9350  28.3414  29.9811  29.9811  32.1785  32.3729  33.8299  35.1286
    35.6957  36.6529  36.6529  37.5945  37.5945  37.9487  38.7106  39.6884
    39.7409  40.4873  40.4873  41.2770  41.6615  41.6615  42.0638  42.3456
    42.7600  42.7600  44.6820  44.6820  44.9625  45.3329  47.3294

          k = 0.0000 0.0000 0.2597 (  2677 PWs)   bands (ev):

   -63.5922 -63.5355 -63.4651 -63.4003 -63.3925 -63.3925 -46.2855 -46.2636
   -26.7886 -26.7789 -26.5962 -26.0537 -26.0537 -26.0369 -25.9837 -25.9504
   -25.9504 -25.9426 -25.9002 -25.9002 -25.8799 -25.8775 -25.8775 -25.8677
   -25.7613 -25.7613 -13.5277 -13.5251 -13.5251 -13.5235 -13.5039 -13.5039
    16.6630  16.6844  17.6337  17.7193  18.0226  18.0226  18.4117  19.0561
    19.0561  19.3023  19.5894  19.5894  19.6801  19.6930  19.7742  19.8080
    20.5520  20.6556  20.6556  20.8651  20.8651  21.0734  21.1104  21.1126
    21.1872  21.5589  21.5589  21.6783  21.7339  22.3818  22.3818  24.2659
    24.7969  26.3023  26.3349  26.3349  26.8509  26.9229  26.9992  27.1491
    27.1491  27.2218  30.7955  30.7955  32.0244  32.2285  34.0382  34.2830
    35.4571  35.4571  36.2086  37.7479  37.7479  38.2187  39.7683  39.9987
    40.7707  40.7707  41.0634  41.4491  41.4491  41.5707  41.6488  42.0337
    43.6166  43.6166  44.7440  44.7440  45.4964  45.7952  46.9032

          k = 0.0000 0.0000 0.3895 (  2658 PWs)   bands (ev):

   -63.5031 -63.4794 -63.4537 -63.4098 -63.3653 -63.3653 -46.2561 -46.2533
   -26.7873 -26.7814 -26.3887 -26.1636 -26.0480 -26.0480 -25.9798 -25.9620
   -25.9377 -25.9377 -25.8830 -25.8830 -25.8715 -25.8695 -25.8695 -25.8651
   -25.7588 -25.7588 -13.5136 -13.5130 -13.5130 -13.5072 -13.5072 -13.5045
    16.6807  16.6896  17.8070  18.0408  18.1508  18.1508  18.7239  19.1712
    19.1712  19.4564  19.6006  19.6417  19.6417  19.6788  19.8148  19.9315
    20.2223  20.2253  20.2253  20.3425  20.7547  20.7547  21.0405  21.0805
    21.5931  21.5931  21.7414  21.7625  22.0324  22.4898  22.4898  23.2483
    25.1573  25.6499  26.1012  26.1012  26.9037  26.9306  27.0271  27.3032
    27.3226  27.3226  31.7640  31.7640  31.8995  31.9805  33.5429  33.5732
    34.1604  34.1604  38.2950  38.2950  38.4699  38.7303  39.5430  40.0264
    40.0264  40.4476  40.6164  41.0510  41.9425  41.9425  42.0500  42.1382
    44.5078  44.5078  44.8712  44.8712  45.9495  46.6992  46.9653

          k = 0.0000 0.1515 0.0000 (  2653 PWs)   bands (ev):

   -63.5684 -63.5267 -63.3879 -63.3619 -63.3619 -63.3199 -46.2648 -46.2331
   -26.7870 -26.7768 -26.7102 -26.0571 -26.0571 -26.0402 -25.9358 -25.9358
   -25.9040 -25.8909 -25.8909 -25.8809 -25.8646 -25.8646 -25.8595 -25.7977
   -25.7425 -25.7425 -13.5193 -13.5193 -13.5126 -13.4970 -13.4965 -13.4965
    16.6553  16.6811  17.0056  17.7480  17.8917  17.8917  18.7042  18.9577
    18.9577  19.2087  19.5717  19.6704  19.6729  19.6729  19.7125  19.7256
    20.5829  20.7022  20.7502  20.7502  21.2301  21.2301  21.2488  21.3043
    21.5305  21.5305  21.6053  21.6595  21.7469  22.2407  22.2407  24.4989
    24.5901  26.6167  26.6167  26.6280  26.8091  26.9006  26.9582  26.9582
    26.9806  28.0518  30.0912  30.0912  32.1596  32.3586  34.2059  34.9133
    35.4352  36.5283  36.5283  37.5334  37.5334  37.9827  38.9878  39.7708
    39.9506  40.6667  40.6667  41.2842  41.5288  41.5288  42.0142  42.3364
    42.8801  42.8801  44.6874  44.6874  45.0684  45.3446  47.2888

          k = 0.0000 0.1515 0.1298 (  2662 PWs)   bands (ev):

   -63.5492 -63.5288 -63.4355 -63.3851 -63.3710 -63.3554 -46.2822 -46.2368
   -26.7896 -26.7430 -26.7039 -26.0550 -26.0505 -26.0447 -25.9450 -25.9395
   -25.9068 -25.8972 -25.8953 -25.8789 -25.8724 -25.8707 -25.8524 -25.8293
   -25.7967 -25.7500 -13.5260 -13.5257 -13.5184 -13.5127 -13.4936 -13.4894
    16.6705  16.9217  17.0095  17.8012  17.8660  17.9632  18.7443  18.8118
    18.9881  19.2382  19.5657  19.6076  19.6832  19.7251  19.7354  19.7992
    20.5764  20.6999  20.7060  20.7756  21.0459  21.2310  21.2487  21.3431
    21.3550  21.4690  21.5321  21.6821  21.7844  22.0739  22.3181  24.5879
    24.6430  26.4717  26.4774  26.6834  26.8488  26.9060  26.9297  26.9711
    26.9976  28.3933  28.7892  30.3770  32.2197  33.4559  34.1270  34.4918
    34.7849  36.6008  36.6625  36.8785  37.2991  38.8706  39.3249  40.0470
    40.0946  40.6888  41.0047  41.0625  41.2230  41.8890  41.9179  42.6852
    42.9004  43.3558  44.6210  44.9616  45.0858  45.2141  46.7190

          k = 0.0000 0.1515 0.2597 (  2666 PWs)   bands (ev):

   -63.5397 -63.4844 -63.4798 -63.4093 -63.3798 -63.3781 -46.2721 -46.2566
   -26.7928 -26.7212 -26.5977 -26.0441 -26.0388 -26.0312 -25.9632 -25.9577
   -25.9448 -25.9141 -25.8997 -25.8936 -25.8775 -25.8773 -25.8726 -25.8566
   -25.8262 -25.7558 -13.5227 -13.5197 -13.5183 -13.5157 -13.5051 -13.4983
    16.6817  17.0176  17.6379  17.8034  17.9813  18.1370  18.4839  18.8887
    19.0966  19.2613  19.4996  19.5127  19.7619  19.7960  19.8376  19.9090
    20.4303  20.5961  20.6263  20.7286  20.7878  21.0717  21.1026  21.1994
    21.3119  21.4744  21.5315  21.5578  21.7433  22.0657  22.4332  24.4248
    24.8432  26.0947  26.2328  26.3922  26.8841  26.9602  26.9931  27.1814
    27.2031  27.5877  29.0984  31.1240  32.0725  32.3185  33.7157  34.6553
    35.4006  36.0556  36.6453  37.1625  37.1839  39.0739  39.8718  39.9465
    40.4146  40.6153  41.2967  41.5875  41.8465  42.0159  42.1523  42.4453
[...]
   -34.0077 -34.0077 -33.9973 -33.9917 -33.9916 -33.9771 -33.9760 -33.9760
   -33.9486 -33.9486 -21.1044 -21.1044 -21.1007 -21.0967 -21.0967 -21.0898
    10.4356  10.4369  11.3436  11.5200  11.5212  11.5212  11.6517  12.1880
    12.1880  12.3562  12.4863  12.4863  12.4896  12.5434  12.6112  12.6570
    12.8555  12.8555  12.8663  12.8955  13.0854  13.0854  13.2246  13.2519
    13.5482  13.5482  13.6471  13.6609  14.2053  14.2053  15.4720  16.7630
    18.4040  18.9486  19.3890  19.3890  19.7565  19.7983  19.8236  19.8322
    19.8322  19.9518  23.5386  23.6286  23.6286  23.6975  24.3180  24.3729
    25.4541  25.4541  28.9302  29.0283  29.0283  29.1968  29.9183  31.0708
    31.0868  31.0868  31.8718  31.8869  32.9198  33.2418  33.3051  33.3051
    36.0505  36.0505  36.2812  36.2812  37.2834  37.3666  38.5421

          k = 0.3366 0.0000 0.1202 (  4458 PWs)   bands (ev):

   -72.0918 -72.0854 -72.0821 -72.0759 -72.0719 -72.0657 -54.1300 -54.1269
   -34.4335 -34.4117 -34.2629 -34.1175 -34.0509 -34.0503 -34.0247 -34.0206
   -34.0189 -34.0099 -34.0065 -33.9966 -33.9904 -33.9887 -33.9848 -33.9798
   -33.9727 -33.9527 -21.1077 -21.1069 -21.1038 -21.1027 -21.1003 -21.0934
    10.4384  10.6035  11.3800  11.5057  11.5560  11.5852  11.6618  12.1537
    12.2066  12.3143  12.3936  12.4507  12.5592  12.5877  12.6295  12.6686
    12.8408  12.8505  12.8796  12.9273  13.0074  13.0888  13.2008  13.2904
    13.4478  13.5523  13.5583  13.6505  14.0273  14.2112  15.6139  16.8868
    18.3749  18.8900  19.3398  19.4222  19.7112  19.7604  19.8249  19.9186
    19.9551  19.9688  22.0480  23.1704  23.6087  23.7969  24.2249  25.5077
    25.5431  26.6940  27.8515  28.4709  28.9378  29.3195  30.1012  30.8612
    31.6753  31.7266  32.0619  32.5735  32.6014  33.3161  33.5134  33.6367
    35.7051  36.0415  36.2334  36.2441  37.0006  37.0676  37.1866

          k = 0.3366 0.0000 0.2404 (  4462 PWs)   bands (ev):

   -72.0957 -72.0900 -72.0802 -72.0801 -72.0766 -72.0666 -54.1326 -54.1266
   -34.4367 -34.3485 -34.2688 -34.1233 -34.0467 -34.0449 -34.0400 -34.0286
   -34.0255 -34.0204 -34.0192 -34.0101 -33.9996 -33.9967 -33.9870 -33.9799
   -33.9773 -33.9468 -21.1102 -21.1061 -21.1058 -21.1022 -21.1017 -21.0952
    10.4436  11.0758  11.4417  11.4844  11.6104  11.7574  11.7692  12.0601
    12.2055  12.2755  12.3124  12.4601  12.5404  12.6514  12.6911  12.7111
    12.7926  12.7950  12.8500  12.8911  12.9985  13.0715  13.1279  13.2583
    13.3173  13.3725  13.5388  13.5595  13.6332  14.2209  16.0255  17.2176
    18.1241  18.6732  19.2613  19.5360  19.6679  19.8072  19.9111  19.9148
    20.0401  20.1124  21.0344  21.9796  23.5510  23.9236  24.2701  25.7512
    26.6890  27.3153  27.5638  28.1701  28.9255  28.9550  29.8326  31.2965
    32.2109  32.5799  32.6740  33.1556  33.1580  33.5699  33.8568  34.2788
    34.5972  35.6531  35.7874  36.0294  36.4769  37.0746  37.3572

          k = 0.3366 0.0000 0.3606 (  4456 PWs)   bands (ev):

   -72.0920 -72.0858 -72.0851 -72.0750 -72.0719 -72.0659 -54.1290 -54.1284
   -34.4359 -34.2740 -34.2489 -34.1439 -34.1217 -34.0350 -34.0337 -34.0267
   -34.0259 -34.0177 -34.0154 -34.0089 -34.0081 -34.0046 -33.9896 -33.9764
   -33.9750 -33.9338 -21.1085 -21.1079 -21.1034 -21.1016 -21.0974 -21.0969
    10.4477  11.4680  11.4776  11.6087  11.7581  11.9479  11.9531  12.0655
    12.1462  12.2604  12.3352  12.3706  12.5714  12.5845  12.6424  12.6630
    12.7236  12.7295  12.8079  12.8386  12.9947  13.0221  13.0520  13.0856
    13.1078  13.1837  13.4358  13.5648  13.6012  14.2259  16.6542  17.3527
    17.8272  18.2944  19.2147  19.6514  19.7078  19.8479  19.9177  19.9721
    19.9739  20.2202  20.8508  21.1950  23.4474  23.6801  24.9527  25.6433
    26.6904  26.9537  27.2024  27.9859  29.4022  30.1571  30.8296  31.1177
    32.4704  32.7541  32.8791  33.0910  33.1514  33.3270  34.1046  34.3995
    34.9125  35.1189  35.6503  36.1176  36.6191  37.5520  37.8340

          k = 0.3366 0.1402 0.0000 (  4456 PWs)   bands (ev):

   -72.0919 -72.0862 -72.0841 -72.0763 -72.0666 -72.0635 -54.1293 -54.1270
   -34.4346 -34.3994 -34.2635 -34.1199 -34.0515 -34.0502 -34.0261 -34.0207
   -34.0183 -34.0096 -34.0079 -33.9957 -33.9923 -33.9880 -33.9835 -33.9789
   -33.9718 -33.9542 -21.1073 -21.1050 -21.1045 -21.1038 -21.0976 -21.0946
    10.4391  10.6628  11.3907  11.5019  11.5675  11.6076  11.6679  12.1412
    12.2127  12.2989  12.3768  12.4601  12.5437  12.6015  12.6441  12.6750
    12.8376  12.8474  12.8752  12.9405  12.9867  13.0885  13.1893  13.3028
    13.4163  13.5260  13.5535  13.6488  13.9648  14.2129  15.6652  16.9297
    18.3561  18.8665  19.3263  19.4357  19.7016  19.7590  19.8397  19.9215
    19.9816  19.9827  21.8285  22.9530  23.6024  23.8568  24.1841  25.5743
    25.7972  26.9520  27.7137  28.3189  28.8701  29.3324  29.9069  31.0951
    31.7734  31.8710  32.1480  32.5426  32.7348  33.3676  33.6007  33.6735
    35.5796  36.0103  36.2033  36.2650  36.7905  37.0335  37.1713

          k = 0.3366 0.1402 0.1202 (  4441 PWs)   bands (ev):

   -72.0883 -72.0810 -72.0782 -72.0750 -72.0598 -72.0475 -54.1256 -54.1246
   -34.4075 -34.3936 -34.2641 -34.1185 -34.0450 -34.0423 -34.0252 -34.0211
   -34.0136 -34.0098 -33.9969 -33.9954 -33.9900 -33.9881 -33.9769 -33.9735
   -33.9674 -33.9663 -21.1039 -21.1038 -21.1026 -21.0972 -21.0941 -21.0935
    10.6067  10.6653  11.4405  11.5624  11.5825  11.6044  11.6828  12.1606
    12.1810  12.2956  12.3497  12.4255  12.5261  12.6271  12.6426  12.7092
    12.7728  12.8173  12.9212  12.9377  13.0267  13.0672  13.2245  13.2516
    13.4148  13.4502  13.5225  13.5545  13.9714  14.0384  15.8160  17.0613
    18.3761  18.8608  19.2528  19.3396  19.7650  19.7775  19.8626  19.9343
    19.9665  20.0969  21.8998  22.1620  23.0025  23.2286  25.3439  25.5411
    26.1183  26.8912  27.7906  27.9296  29.3879  29.8292  30.4166  30.8764
    31.3070  32.1777  32.2103  32.5195  33.1563  33.4626  33.6648  34.0505
    35.6111  35.8597  35.9465  36.1114  36.5665  37.0295  37.1275

          k = 0.3366 0.1402 0.2404 (  4455 PWs)   bands (ev):

   -72.0994 -72.0873 -72.0825 -72.0771 -72.0647 -72.0619 -54.1292 -54.1275
   -34.3988 -34.3467 -34.2710 -34.1232 -34.0432 -34.0416 -34.0376 -34.0290
   -34.0230 -34.0165 -34.0127 -34.0089 -34.0010 -33.9928 -33.9871 -33.9841
   -33.9782 -33.9738 -21.1085 -21.1068 -21.1042 -21.1010 -21.0970 -21.0961
    10.6707  11.0802  11.5285  11.5723  11.6204  11.7504  11.7895  12.0810
    12.2157  12.2425  12.3012  12.4394  12.5165  12.6029  12.6810  12.6929
    12.7197  12.7785  12.9045  12.9599  13.0113  13.0771  13.1473  13.2406
    13.2827  13.3306  13.4172  13.5038  13.5555  13.9858  16.2381  17.4076
    18.2341  18.7335  19.0968  19.3199  19.7891  19.8553  19.9130  19.9494
    20.0567  20.2432  21.0921  22.0603  22.1310  23.1250  24.6098  25.2216
    26.8861  27.7178  27.9032  28.9681  29.4198  29.9639  30.4164  31.1707
    31.8579  32.4030  32.6769  32.7811  33.5702  33.6682  34.0118  34.4488
    34.7740  35.5280  35.6554  35.8522  36.2423  36.6851  37.1019

          k = 0.3366 0.1402 0.3606 (  4468 PWs)   bands (ev):

   -72.0985 -72.0876 -72.0865 -72.0836 -72.0804 -72.0729 -54.1315 -54.1313
   -34.4063 -34.2761 -34.2544 -34.1449 -34.1203 -34.0430 -34.0368 -34.0327
   -34.0272 -34.0203 -34.0164 -34.0121 -34.0073 -34.0053 -33.9900 -33.9863
   -33.9800 -33.9759 -21.1113 -21.1080 -21.1071 -21.1025 -21.1013 -21.1002
    10.6750  11.5615  11.5737  11.6231  11.7616  11.9455  11.9688  12.0784
    12.1921  12.2562  12.3203  12.3534  12.5104  12.5195  12.5840  12.6249
    12.7110  12.7451  12.8424  12.8488  12.9911  13.0096  13.0729  13.1013
    13.1700  13.1802  13.3370  13.4158  13.4700  13.9926  16.8731  17.5798
    17.9497  18.3934  19.0857  19.4087  19.8226  19.8839  19.9364  19.9494
    20.0860  20.3144  20.8584  21.2392  22.5305  23.0552  24.0809  24.4863
    27.3999  27.9711  28.4056  29.1656  29.6706  30.5990  30.9804  31.2446
    32.5383  32.6349  32.8610  33.0425  33.4592  33.4957  34.0358  34.1811
    34.6418  34.8242  35.4458  35.9581  36.5698  36.6723  36.8936

          k = 0.3366 0.2805 0.0000 (  4458 PWs)   bands (ev):

   -72.1001 -72.0857 -72.0789 -72.0783 -72.0738 -72.0629 -54.1294 -54.1285
   -34.4365 -34.3224 -34.2711 -34.1211 -34.0715 -34.0418 -34.0395 -34.0302
   -34.0248 -34.0213 -34.0188 -34.0125 -34.0005 -33.9995 -33.9832 -33.9757
   -33.9730 -33.9392 -21.1102 -21.1068 -21.1036 -21.0997 -21.0985 -21.0983
    10.4452  11.2836  11.4577  11.4819  11.6158  11.8270  11.8444  12.0292
    12.1811  12.2953  12.3011  12.4249  12.5761  12.6633  12.6967  12.7048
    12.7533  12.7569  12.8453  12.8645  13.0131  13.0567  13.1094  13.2170
    13.2306  13.3392  13.3952  13.5614  13.6232  14.2232  16.2159  17.3489
    17.9648  18.5620  19.2410  19.5893  19.6602  19.8377  19.9065  19.9395
    20.0320  20.1575  20.8862  21.6672  23.5207  23.8194  24.4813  25.7915
    26.6931  27.2422  27.3374  28.5938  28.6003  29.3258  30.1878  31.0906
    32.4648  32.7741  32.8197  33.2387  33.2566  33.5792  34.0526  34.2156
    34.5979  35.2839  35.7153  35.9587  36.5525  37.1994  37.5135

          k = 0.3366 0.2805 0.1202 (  4459 PWs)   bands (ev):

   -72.0925 -72.0888 -72.0837 -72.0788 -72.0723 -72.0676 -54.1305 -54.1280
   -34.4101 -34.3170 -34.2733 -34.1235 -34.0743 -34.0416 -34.0373 -34.0319
   -34.0231 -34.0183 -34.0123 -34.0092 -34.0042 -34.0017 -33.9888 -33.9815
   -33.9778 -33.9638 -21.1096 -21.1081 -21.1056 -21.1015 -21.0973 -21.0966
    10.6130  11.2886  11.5250  11.5491  11.6214  11.8225  11.8581  12.0422
    12.2118  12.2590  12.2887  12.4272  12.5434  12.6101  12.6502  12.6991
    12.7075  12.7729  12.8807  12.9109  13.0250  13.0514  13.1339  13.2008
    13.2524  13.3235  13.3458  13.4560  13.5267  14.0501  16.3735  17.4975
    18.0596  18.6206  19.1179  19.3990  19.7727  19.8682  19.9235  19.9500
    20.0604  20.2529  20.9076  21.7190  22.4590  23.3012  24.5746  25.0349
    26.9320  27.6961  28.0943  29.0333  29.2217  29.9596  30.3299  31.1606
    32.1304  32.6185  32.9373  33.1604  33.4570  33.5981  34.0272  34.1897
    34.7045  35.2089  35.6406  35.8731  36.4907  36.7225  37.2179

          k = 0.3366 0.2805 0.2404 (  4462 PWs)   bands (ev):

   -72.0936 -72.0904 -72.0859 -72.0855 -72.0717 -72.0676 -54.1313 -54.1292
   -34.3420 -34.3146 -34.2713 -34.1231 -34.0745 -34.0478 -34.0370 -34.0365
   -34.0317 -34.0249 -34.0180 -34.0130 -34.0112 -34.0007 -33.9957 -33.9927
   -33.9909 -33.9837 -21.1080 -21.1058 -21.1050 -21.1027 -21.1008 -21.1004
    11.0879  11.2975  11.6181  11.7040  11.7533  11.8277  11.9042  12.0763
    12.1399  12.2573  12.2833  12.4308  12.5090  12.5329  12.5907  12.6060
    12.6970  12.8138  12.9202  12.9341  13.0276  13.0432  13.1103  13.1317
    13.1719  13.2558  13.2815  13.3294  13.3679  13.5692  16.8096  17.8663
    18.2870  18.7446  18.8371  19.0595  19.8925  19.9246  19.9348  19.9598
    20.2108  20.4594  20.9889  21.3450  21.9060  22.3452  23.2025  24.2203
    28.1051  28.6091  28.7644  30.1734  30.5637  30.7467  31.2108  31.4116
    31.9165  32.2503  32.5169  33.1032  33.3754  33.7942  34.1758  34.5718
    34.7966  35.0958  35.1754  35.4151  35.5728  35.9933  36.3077

          k = 0.3366 0.2805 0.3606 (  4463 PWs)   bands (ev):

   -72.0964 -72.0922 -72.0844 -72.0818 -72.0769 -72.0670 -54.1324 -54.1290
   -34.3110 -34.2707 -34.2506 -34.1444 -34.1229 -34.0753 -34.0331 -34.0325
   -34.0317 -34.0246 -34.0194 -34.0125 -34.0111 -34.0044 -34.0031 -33.9931
   -33.9913 -33.9853 -21.1083 -21.1061 -21.1056 -21.1031 -21.1020 -21.0991
    11.3028  11.6219  11.7657  11.8341  11.8552  11.9619  12.0105  12.1010
    12.1733  12.2492  12.2714  12.4000  12.4358  12.4486  12.4969  12.5153
    12.7069  12.7572  12.8473  12.8652  12.9206  12.9989  13.0377  13.0841
    13.0907  13.1512  13.2166  13.2203  13.2616  13.3735  17.4309  18.0912
    18.2769  18.6388  18.7804  18.9541  19.9295  19.9468  19.9476  19.9598
    20.3599  20.5689  20.9130  21.3468  21.4560  22.0401  22.4547  23.1887
    28.9270  29.3444  29.5703  30.7998  31.1509  31.4466  31.5991  31.8091
    32.3909  32.5518  32.7980  33.0912  33.2390  33.4789  33.7256  34.3455
    34.4474  34.5823  34.7864  35.0799  35.2303  35.3778  35.7772

          k = 0.3366-0.4207 0.0000 (  4466 PWs)   bands (ev):

   -72.0925 -72.0869 -72.0847 -72.0843 -72.0801 -72.0752 -54.1310 -54.1309
   -34.4377 -34.2726 -34.2007 -34.1996 -34.1231 -34.0356 -34.0346 -34.0318
   -34.0275 -34.0209 -34.0202 -34.0110 -34.0098 -34.0057 -33.9906 -33.9819
   -33.9808 -33.9406 -21.1085 -21.1082 -21.1059 -21.1054 -21.1003 -21.1001
    10.4482  11.4679  11.4834  11.6117  11.9157  11.9833  12.0376  12.1376
    12.1483  12.1988  12.2793  12.4134  12.4750  12.5220  12.5676  12.6616
    12.7263  12.7434  12.7942  12.8505  12.9810  12.9956  13.0115  13.0700
    13.1001  13.1790  13.4478  13.5662  13.5928  14.2263  17.0041  17.0314
    17.9643  18.1295  19.2086  19.6496  19.7674  19.8206  19.9312  19.9442
    19.9795  20.2352  20.9712  20.9731  23.4210  23.6503  25.2636  25.3869
    26.7784  26.7806  27.2812  27.7528  29.7042  30.1492  31.3039  31.6129
    31.8136  32.3168  32.9011  33.2268  33.2720  33.3434  33.9072  34.5235
    34.8665  35.2516  35.6582  36.2776  36.6212  37.7026  37.9597

          k = 0.3366-0.4207 0.1202 (  4462 PWs)   bands (ev):

   -72.0969 -72.0862 -72.0834 -72.0803 -72.0767 -72.0691 -54.1301 -54.1301
   -34.4152 -34.2770 -34.1978 -34.1967 -34.1139 -34.0430 -34.0353 -34.0282
   -34.0254 -34.0237 -34.0147 -34.0081 -34.0076 -34.0023 -33.9856 -33.9840
   -33.9786 -33.9689 -21.1062 -21.1060 -21.1043 -21.1040 -21.1012 -21.1012
    10.6162  11.5386  11.5569  11.6192  11.9283  11.9814  12.0475  12.1291
    12.1918  12.2197  12.2705  12.3929  12.4418  12.4700  12.5181  12.6507
    12.7137  12.7302  12.8121  12.8344  12.9717  12.9995  13.0262  13.0949
    13.1628  13.1662  13.3775  13.4485  13.4923  14.0544  17.1686  17.1949
    18.0833  18.1908  19.1210  19.4795  19.8312  19.8573  19.9299  19.9490
    20.0565  20.2979  20.9777  20.9972  22.9106  23.0178  24.3541  24.4913
    27.4756  27.5098  28.4367  28.5792  29.8553  30.4184  31.4923  31.6894
    31.8848  32.3916  32.7938  33.2548  33.4244  33.4631  33.9684  34.4224
    34.5068  35.0920  35.3161  36.0405  36.7212  36.8833  37.1020

          k = 0.3366-0.4207 0.2404 (  4472 PWs)   bands (ev):

   -72.0985 -72.0973 -72.0868 -72.0863 -72.0785 -72.0761 -54.1326 -54.1324
   -34.3449 -34.2717 -34.2016 -34.2012 -34.1207 -34.0498 -34.0370 -34.0369
   -34.0307 -34.0267 -34.0244 -34.0180 -34.0109 -34.0074 -34.0017 -33.9967
   -33.9921 -33.9883 -21.1105 -21.1104 -21.1051 -21.1050 -21.1021 -21.1020
    11.0913  11.6192  11.7580  11.7647  11.9611  11.9845  12.0729  12.1146
    12.2352  12.2662  12.2908  12.3167  12.3536  12.3915  12.4792  12.5416
    12.7292  12.7379  12.8242  12.8379  12.9226  12.9975  13.0492  13.0940
    13.1002  13.2020  13.2136  13.2313  13.3049  13.5741  17.5929  17.6087
    18.3721  18.3765  18.9141  19.1075  19.9123  19.9258  19.9426  19.9566
    20.2869  20.4471  21.0303  21.1091  21.8525  22.0846  23.1443  23.1448
    28.5724  28.9936  29.8414  29.9084  30.7547  31.1931  31.8394  31.9293
    32.1443  32.6171  32.7713  33.1084  33.4052  33.6156  33.8862  33.9292
    34.5011  34.5680  34.8955  35.3208  35.5129  35.5193  36.1564

          k = 0.3366-0.4207 0.3606 (  4474 PWs)   bands (ev):

   -72.0948 -72.0912 -72.0871 -72.0861 -72.0835 -72.0815 -54.1323 -54.1323
   -34.2675 -34.2526 -34.2008 -34.2007 -34.1464 -34.1242 -34.0325 -34.0322
   -34.0242 -34.0228 -34.0179 -34.0144 -34.0132 -34.0105 -34.0100 -34.0010
   -33.9994 -33.9988 -21.1083 -21.1083 -21.1059 -21.1058 -21.1038 -21.1036
    11.6291  11.7698  11.9948  11.9970  12.0473  12.0513  12.0937  12.1041
    12.1998  12.2139  12.2849  12.3034  12.3410  12.3475  12.4162  12.4239
    12.6692  12.6692  12.8042  12.8194  12.8254  12.8535  12.9471  13.0132
    13.0857  13.1180  13.1559  13.1750  13.1958  13.1971  18.1107  18.1121
    18.5077  18.5290  18.7354  18.7880  19.9497  19.9510  19.9570  19.9583
    20.6096  20.6563  21.0976  21.1843  21.3218  21.4468  22.0889  22.1038
    29.7661  30.0033  30.6969  30.7223  31.6662  32.0656  32.3071  32.4046
    32.5206  32.5991  32.9316  32.9706  33.4727  33.5201  33.6273  33.6918
    34.0448  34.1713  34.3811  34.4483  34.8028  34.9260  35.0951

     the Fermi energy is    30.2343 ev

!    total energy              =   -2495.32382914 Ry
     Harris-Foulkes estimate   =   -2495.32382928 Ry
     estimated scf accuracy    <       0.00000019 Ry

     The total energy is the sum of the following terms:

     one-electron contribution =    -581.74983915 Ry
     hartree contribution      =     406.07990290 Ry
     xc contribution           =    -216.50915016 Ry
     ewald contribution        =   -2102.90867262 Ry
     smearing contrib. (-TS)   =      -0.23607011 Ry

     convergence has been achieved in  10 iterations

     Forces acting on atoms (Ry/au):

     atom    1 type  1   force =     0.00000000    0.00000000    0.00000000
     atom    2 type  1   force =     0.00000000    0.00000000    0.00000000
     atom    3 type  1   force =     0.00000000    0.00000000    0.00000000
     atom    4 type  1   force =     0.00000000    0.00000000    0.00000000
     atom    5 type  1   force =     0.00000000    0.00000000    0.00000000
     atom    6 type  1   force =     0.00000000    0.00000000    0.00000000
     atom    7 type  2   force =     0.00000000    0.00000000    0.00000000
     atom    8 type  2   force =     0.00000000    0.00000000    0.00000000

     Total force =     0.000000     Total SCF correction =     0.000000


     entering subroutine stress ...

          total   stress  (Ry/bohr**3)                   (kbar)     P=  327.70
   0.00222767   0.00000000   0.00000000        327.70      0.00      0.00
   0.00000000   0.00222767   0.00000000          0.00    327.70      0.00
   0.00000000   0.00000000   0.00222767          0.00      0.00    327.70


     Writing output data file Prototype-La-cP8-Cr3Si.save
 
     init_run     :      8.32s CPU     11.19s WALL (       2 calls)
     electrons    :   1379.12s CPU   1631.11s WALL (       5 calls)
     update_pot   :      1.40s CPU      1.42s WALL (       3 calls)
     forces       :      6.24s CPU      6.65s WALL (       5 calls)
     stress       :     17.02s CPU     17.59s WALL (       5 calls)

     Called by init_run:
     wfcinit      :      7.81s CPU     10.11s WALL (       2 calls)
     potinit      :      0.20s CPU      0.21s WALL (       2 calls)

     Called by electrons:
     c_bands      :   1335.59s CPU   1554.80s WALL (      40 calls)
     sum_band     :     43.23s CPU     57.11s WALL (      40 calls)
     v_of_rho     :      0.05s CPU      0.06s WALL (      45 calls)
     mix_rho      :      0.05s CPU      0.05s WALL (      40 calls)

     Called by c_bands:
     init_us_2    :      2.23s CPU      3.03s WALL (    4416 calls)
     ccgdiagg     :   1184.17s CPU   1358.79s WALL (    2284 calls)
     wfcrot       :    156.43s CPU    200.48s WALL (    2332 calls)

     Called by *cgdiagg:
     h_psi        :    897.41s CPU   1079.34s WALL ( 1184076 calls)
     cdiaghg      :     10.65s CPU     11.49s WALL (    2332 calls)

     Called by h_psi:
     add_vuspsi   :     99.82s CPU    127.97s WALL ( 1184076 calls)

     General routines
     calbec       :    276.37s CPU    277.04s WALL ( 2366300 calls)
     fft          :      0.10s CPU      0.11s WALL (     203 calls)
     fftw         :    648.23s CPU    778.09s WALL ( 3041640 calls)
     davcio       :      1.82s CPU      4.61s WALL (    6336 calls)
 
     Parallel routines
     fft_scatter  :    254.06s CPU    302.02s WALL ( 3041843 calls)
 
     PWSCF        : 23m32.77s CPU    27m51.52s WALL

 
   This run was terminated on:  23:10:34  22Mar2018            

=------------------------------------------------------------------------------=
   JOB DONE.
=------------------------------------------------------------------------------=
