
     Program PWSCF v.5.0.2 starts on 22Mar2018 at 22:42:42 

     This program is part of the open-source Quantum ESPRESSO suite
     for quantum simulation of materials; please cite
         "P. Giannozzi et al., J. Phys.:Condens. Matter 21 395502 (2009);
          URL http://www.quantum-espresso.org", 
     in publications or presentations arising from this work. More details at
     http://www.quantum-espresso.org/quote.php

     Parallel version (MPI), running on     4 processors
     R & G space division:  proc/nbgrp/npool/nimage =       4

     Current dimensions of program PWSCF are:
     Max number of different atomic species (ntypx) = 10
     Max number of k-points (npk) =  40000
     Max angular momentum in pseudopotentials (lmaxx) =  3
     Waiting for input...
     Reading input from standard input

     Subspace diagonalization in iterative solution of the eigenvalue problem:
     a serial algorithm will be used

 
     Parallelization info
     --------------------
     sticks:   dense  smooth     PW     G-vecs:    dense   smooth      PW
     Min         164     164     48                 3132     3132     524
     Max         165     165     49                 3135     3135     527
     Sum         657     657    193                12533    12533    2103
 


     bravais-lattice index     =            0
     lattice parameter (alat)  =       7.1317  a.u.
     unit-cell volume          =     362.7211 (a.u.)^3
     number of atoms/cell      =            4
     number of atomic types    =            2
     number of electrons       =        86.00
     number of Kohn-Sham states=           52
     kinetic-energy cutoff     =      40.0000  Ry
     charge density cutoff     =     160.0000  Ry
     convergence threshold     =      1.0E-04
     mixing beta               =       0.7000
     number of iterations used =            8  plain     mixing
     Exchange-correlation      = SLA-PZ-NOGX-NOGC ( 1 1 0 0 0)
     EXX-fraction              =        0.00
     nstep                     =           50


     celldm(1)=   7.131665  celldm(2)=   0.000000  celldm(3)=   0.000000
     celldm(4)=   0.000000  celldm(5)=   0.000000  celldm(6)=   0.000000

     crystal axes: (cart. coord. in units of alat)
               a(1) = (   1.000000   0.000000   0.000000 )  
               a(2) = (   0.000000   1.000000   0.000000 )  
               a(3) = (   0.000000   0.000000   1.000000 )  

     reciprocal axes: (cart. coord. in units 2 pi/alat)
               b(1) = (  1.000000  0.000000  0.000000 )  
               b(2) = (  0.000000  1.000000  0.000000 )  
               b(3) = (  0.000000  0.000000  1.000000 )  


     PseudoPot. # 1 for Er read from file:
     /home/cwx6513/pp.La/Er.UPF
     MD5 check sum: e152ae21b84514339d8526f066caf99b
     Pseudo is Norm-conserving, Zval = 22.0
     Generated in analytical, separable form
     Using radial grid of 1267 points,  6 beta functions with: 
                l(1) =   0
                l(2) =   0
                l(3) =   1
                l(4) =   1
                l(5) =   2
                l(6) =   3

     PseudoPot. # 2 for Dy read from file:
     /home/cwx6513/pp.La/Dy.UPF
     MD5 check sum: 9597327bec62616a94a14d07f3fd9936
     Pseudo is Norm-conserving, Zval = 20.0
     Generated in analytical, separable form
     Using radial grid of 1265 points,  6 beta functions with: 
                l(1) =   0
                l(2) =   0
                l(3) =   1
                l(4) =   1
                l(5) =   2
                l(6) =   3

     atomic species   valence    mass     pseudopotential
        Cu            22.00    63.54600     Er( 1.00)
        Au            20.00   196.96600     Dy( 1.00)

     48 Sym. Ops., with inversion, found



   Cartesian axes

     site n.     atom                  positions (alat units)
         1           Cu  tau(   1) = (   0.0000000   0.5000000   0.5000000  )
         2           Cu  tau(   2) = (   0.5000000   0.5000000   0.0000000  )
         3           Cu  tau(   3) = (   0.5000000   0.0000000   0.5000000  )
         4           Au  tau(   4) = (   0.0000000   0.0000000   0.0000000  )

     number of k points=   100  gaussian smearing, width (Ry)=  0.1000

     Number of k-points >= 100: set verbosity='high' to print them.

     Dense  grid:    12533 G-vectors     FFT dimensions: (  30,  30,  30)

     Largest allocated arrays     est. size (Mb)     dimensions
        Kohn-Sham Wavefunctions         0.32 Mb     (    400,   52)
        NL pseudopotentials             0.49 Mb     (    400,   80)
        Each V/rho on FFT grid          0.11 Mb     (   7200)
        Each G-vector array             0.02 Mb     (   3134)
        G-vector shells                 0.02 Mb     (   3134)
     Largest temporary arrays     est. size (Mb)     dimensions
        Each subspace H/S matrix        0.04 Mb     (  52,  52)
        Each <psi_i|beta_j> matrix      0.06 Mb     (     80,   52)
        Arrays for rho mixing           0.88 Mb     (   7200,   8)

     Initial potential from superposition of free atoms

     Starting from uniform charge
     Starting wfc are    0 randomized atomic wfcs

     total cpu time spent up to now is        2.1 secs

     Self-consistent Calculation

     iteration #  1     ecut=    40.00 Ry     beta=0.70
     CG style diagonalization
     c_bands:  1 eigenvalues not converged
     ethr =  1.00E-02,  avg # of iterations = 11.3

     total cpu time spent up to now is       28.1 secs

     total energy              =   -1119.87450472 Ry
     Harris-Foulkes estimate   =   -1457.97833344 Ry
     estimated scf accuracy    <     433.94288313 Ry

     iteration #  2     ecut=    40.00 Ry     beta=0.70
     CG style diagonalization
     c_bands:  1 eigenvalues not converged
     c_bands:  1 eigenvalues not converged
     ethr =  1.00E-02,  avg # of iterations =  8.8

     total cpu time spent up to now is       48.3 secs

     total energy              =   -1231.20464797 Ry
     Harris-Foulkes estimate   =   -1262.46595162 Ry
     estimated scf accuracy    <      44.08664795 Ry

     iteration #  3     ecut=    40.00 Ry     beta=0.70
     CG style diagonalization
     ethr =  1.00E-02,  avg # of iterations =  4.9

     total cpu time spent up to now is       59.5 secs

     total energy              =   -1243.39691554 Ry
     Harris-Foulkes estimate   =   -1247.30614963 Ry
     estimated scf accuracy    <       7.59247901 Ry

     iteration #  4     ecut=    40.00 Ry     beta=0.70
     CG style diagonalization
     ethr =  8.83E-03,  avg # of iterations =  3.4

     total cpu time spent up to now is       68.3 secs

     total energy              =   -1244.86238070 Ry
     Harris-Foulkes estimate   =   -1245.10789452 Ry
     estimated scf accuracy    <       0.37389969 Ry

     iteration #  5     ecut=    40.00 Ry     beta=0.70
     CG style diagonalization
     ethr =  4.35E-04,  avg # of iterations =  4.2

     total cpu time spent up to now is       77.1 secs

     total energy              =   -1244.96159487 Ry
     Harris-Foulkes estimate   =   -1245.02977746 Ry
     estimated scf accuracy    <       0.11453949 Ry

     iteration #  6     ecut=    40.00 Ry     beta=0.70
     CG style diagonalization
     ethr =  1.33E-04,  avg # of iterations =  3.7

     total cpu time spent up to now is       85.3 secs

     total energy              =   -1244.98077268 Ry
     Harris-Foulkes estimate   =   -1244.98220212 Ry
     estimated scf accuracy    <       0.00234490 Ry

     iteration #  7     ecut=    40.00 Ry     beta=0.70
     CG style diagonalization
     c_bands:  1 eigenvalues not converged
     c_bands:  1 eigenvalues not converged
     c_bands:  1 eigenvalues not converged
     c_bands:  1 eigenvalues not converged
     c_bands:  1 eigenvalues not converged
     c_bands:  1 eigenvalues not converged
     c_bands:  1 eigenvalues not converged
     c_bands:  1 eigenvalues not converged
     c_bands:  1 eigenvalues not converged
     c_bands:  1 eigenvalues not converged
     c_bands:  1 eigenvalues not converged
     c_bands:  1 eigenvalues not converged
     c_bands:  1 eigenvalues not converged
     c_bands:  1 eigenvalues not converged
     c_bands:  1 eigenvalues not converged
     c_bands:  1 eigenvalues not converged
     c_bands:  1 eigenvalues not converged
     c_bands:  1 eigenvalues not converged
     c_bands:  1 eigenvalues not converged
     c_bands:  1 eigenvalues not converged
     c_bands:  1 eigenvalues not converged
     c_bands:  1 eigenvalues not converged
     c_bands:  2 eigenvalues not converged
     c_bands:  2 eigenvalues not converged
     c_bands:  4 eigenvalues not converged
     ethr =  2.73E-06,  avg # of iterations =  4.8

     total cpu time spent up to now is       96.4 secs

     total energy              =   -1244.98186682 Ry
     Harris-Foulkes estimate   =   -1244.98200834 Ry
     estimated scf accuracy    <       0.00019330 Ry

     iteration #  8     ecut=    40.00 Ry     beta=0.70
     CG style diagonalization
     c_bands:  1 eigenvalues not converged
     ethr =  2.25E-07,  avg # of iterations =  4.0

     total cpu time spent up to now is      106.4 secs

     End of self-consistent calculation

     Number of k-points >= 100: set verbosity='high' to print the bands.

     the Fermi energy is    45.5733 ev

!    total energy              =   -1244.98193865 Ry
     Harris-Foulkes estimate   =   -1244.98196919 Ry
     estimated scf accuracy    <       0.00003772 Ry

     The total energy is the sum of the following terms:

     one-electron contribution =     -88.10654387 Ry
     hartree contribution      =     143.74841694 Ry
     xc contribution           =    -110.84797200 Ry
     ewald contribution        =   -1189.64848590 Ry
     smearing contrib. (-TS)   =      -0.12735382 Ry

     convergence has been achieved in   8 iterations

     Forces acting on atoms (Ry/au):

     atom    1 type  1   force =     0.00000000    0.00000000    0.00000000
     atom    2 type  1   force =     0.00000000    0.00000000    0.00000000
     atom    3 type  1   force =     0.00000000    0.00000000    0.00000000
     atom    4 type  2   force =     0.00000000    0.00000000    0.00000000

     Total force =     0.000000     Total SCF correction =     0.000000


     entering subroutine stress ...

          total   stress  (Ry/bohr**3)                   (kbar)     P= 3212.51
   0.02183821   0.00000000   0.00000000       3212.51      0.00      0.00
   0.00000000   0.02183821   0.00000000          0.00   3212.51      0.00
   0.00000000   0.00000000   0.02183821          0.00      0.00   3212.51


     BFGS Geometry Optimization

     number of scf cycles    =   1
     number of bfgs steps    =   0

     enthalpy new            =   -1244.9819386471 Ry

     new trust radius        =       0.5000000000 bohr
     new conv_thr            =       0.0001000000 Ry

     new unit-cell volume =    525.13076 a.u.^3 (    77.81635 Ang^3 )

CELL_PARAMETERS (alat=  7.13166486)
   1.131266415   0.000000000   0.000000000
   0.000000000   1.131266415   0.000000000
   0.000000000   0.000000000   1.131266415

ATOMIC_POSITIONS (crystal)
Cu       0.000000000   0.500000000   0.500000000
Cu       0.500000000   0.500000000   0.000000000
Cu       0.500000000   0.000000000   0.500000000
Au       0.000000000   0.000000000   0.000000000



     Writing output data file Prototype-La-cP4-Cu3Au.save
     NEW-OLD atomic charge density approx. for the potential
     NEW k-points: (use verbosity='high' to print them)

     total cpu time spent up to now is      109.1 secs

     Self-consistent Calculation

     iteration #  1     ecut=    40.00 Ry     beta=0.70
     CG style diagonalization
     c_bands:  3 eigenvalues not converged
     c_bands:  1 eigenvalues not converged
     c_bands:  3 eigenvalues not converged
     c_bands:  5 eigenvalues not converged
     c_bands:  1 eigenvalues not converged
     c_bands:  1 eigenvalues not converged
     c_bands:  1 eigenvalues not converged
     c_bands:  1 eigenvalues not converged
     c_bands:  2 eigenvalues not converged
     c_bands:  1 eigenvalues not converged
     c_bands:  1 eigenvalues not converged
     c_bands:  1 eigenvalues not converged
     c_bands:  1 eigenvalues not converged
     c_bands:  1 eigenvalues not converged
     c_bands:  1 eigenvalues not converged
     c_bands:  2 eigenvalues not converged
     c_bands:  1 eigenvalues not converged
     c_bands:  2 eigenvalues not converged
     c_bands:  2 eigenvalues not converged
     ethr =  1.00E-06,  avg # of iterations = 20.2

     total cpu time spent up to now is      150.2 secs

     total energy              =   -1233.89248596 Ry
     Harris-Foulkes estimate   =   -1263.97573612 Ry
     estimated scf accuracy    <      37.87006494 Ry

     iteration #  2     ecut=    40.00 Ry     beta=0.70
     CG style diagonalization
     ethr =  1.00E-02,  avg # of iterations =  4.2

     total cpu time spent up to now is      160.3 secs

     total energy              =   -1244.63703060 Ry
     Harris-Foulkes estimate   =   -1247.81083344 Ry
     estimated scf accuracy    <       4.63639685 Ry

     iteration #  3     ecut=    40.00 Ry     beta=0.70
     CG style diagonalization
     ethr =  5.39E-03,  avg # of iterations =  3.6

     total cpu time spent up to now is      167.7 secs

     total energy              =   -1245.88282595 Ry
     Harris-Foulkes estimate   =   -1245.98897605 Ry
     estimated scf accuracy    <       0.20625084 Ry

     iteration #  4     ecut=    40.00 Ry     beta=0.70
     CG style diagonalization
     ethr =  2.40E-04,  avg # of iterations =  3.6

     total cpu time spent up to now is      175.4 secs

     total energy              =   -1245.93507144 Ry
     Harris-Foulkes estimate   =   -1245.94072630 Ry
     estimated scf accuracy    <       0.01058982 Ry

     iteration #  5     ecut=    40.00 Ry     beta=0.70
     CG style diagonalization
     c_bands:  1 eigenvalues not converged
     ethr =  1.23E-05,  avg # of iterations =  3.8

     total cpu time spent up to now is      184.1 secs

     total energy              =   -1245.93623503 Ry
     Harris-Foulkes estimate   =   -1245.93672295 Ry
     estimated scf accuracy    <       0.00085848 Ry

     iteration #  6     ecut=    40.00 Ry     beta=0.70
     CG style diagonalization
     c_bands:  1 eigenvalues not converged
     c_bands:  1 eigenvalues not converged
     ethr =  9.98E-07,  avg # of iterations =  3.8

     total cpu time spent up to now is      193.8 secs

     End of self-consistent calculation

     Number of k-points >= 100: set verbosity='high' to print the bands.

     the Fermi energy is    30.1225 ev

!    total energy              =   -1245.93643656 Ry
     Harris-Foulkes estimate   =   -1245.93646461 Ry
     estimated scf accuracy    <       0.00003792 Ry

     The total energy is the sum of the following terms:

     one-electron contribution =    -287.31977202 Ry
     hartree contribution      =     201.06420429 Ry
     xc contribution           =    -107.95852674 Ry
     ewald contribution        =   -1051.60771496 Ry
     smearing contrib. (-TS)   =      -0.11462713 Ry

     convergence has been achieved in   6 iterations

     Forces acting on atoms (Ry/au):

     atom    1 type  1   force =     0.00000000    0.00000000    0.00000000
     atom    2 type  1   force =     0.00000000    0.00000000    0.00000000
     atom    3 type  1   force =     0.00000000    0.00000000    0.00000000
     atom    4 type  2   force =     0.00000000    0.00000000    0.00000000

     Total force =     0.000000     Total SCF correction =     0.000000


     entering subroutine stress ...

          total   stress  (Ry/bohr**3)                   (kbar)     P= -657.77
  -0.00447142   0.00000000   0.00000000       -657.77      0.00      0.00
   0.00000000  -0.00447142   0.00000000          0.00   -657.77      0.00
   0.00000000   0.00000000  -0.00447142          0.00      0.00   -657.77


     number of scf cycles    =   2
     number of bfgs steps    =   1

     enthalpy old            =   -1244.9819386471 Ry
     enthalpy new            =   -1245.9364365575 Ry

     CASE: enthalpy_new < enthalpy_old

     small trust_radius: resetting bfgs history

     new trust radius        =       0.5123291134 bohr
     new conv_thr            =       0.0000010000 Ry

     new unit-cell volume =    367.97736 a.u.^3 (    54.52862 Ang^3 )

CELL_PARAMETERS (alat=  7.13166486)
   1.004807279   0.000000000   0.000000000
   0.000000000   1.004807279   0.000000000
   0.000000000   0.000000000   1.004807279

ATOMIC_POSITIONS (crystal)
Cu       0.000000000   0.500000000   0.500000000
Cu       0.500000000   0.500000000   0.000000000
Cu       0.500000000   0.000000000   0.500000000
Au       0.000000000   0.000000000   0.000000000



     Writing output data file Prototype-La-cP4-Cu3Au.save
     NEW-OLD atomic charge density approx. for the potential
     NEW k-points: (use verbosity='high' to print them)

     total cpu time spent up to now is      196.6 secs

     Self-consistent Calculation

     iteration #  1     ecut=    40.00 Ry     beta=0.70
     CG style diagonalization
     c_bands:  2 eigenvalues not converged
     c_bands:  1 eigenvalues not converged
     c_bands:  4 eigenvalues not converged
     c_bands:  1 eigenvalues not converged
     c_bands:  1 eigenvalues not converged
     c_bands:  1 eigenvalues not converged
     c_bands:  3 eigenvalues not converged
     c_bands:  4 eigenvalues not converged
     c_bands:  4 eigenvalues not converged
     c_bands:  3 eigenvalues not converged
     c_bands:  1 eigenvalues not converged
     c_bands:  1 eigenvalues not converged
     c_bands:  1 eigenvalues not converged
     c_bands:  1 eigenvalues not converged
     c_bands:  3 eigenvalues not converged
     c_bands:  4 eigenvalues not converged
     c_bands:  1 eigenvalues not converged
     c_bands:  1 eigenvalues not converged
     c_bands:  1 eigenvalues not converged
     c_bands:  1 eigenvalues not converged
     c_bands:  1 eigenvalues not converged
     ethr =  1.00E-06,  avg # of iterations = 21.0

     total cpu time spent up to now is      241.1 secs

     total energy              =   -1230.82566308 Ry
     Harris-Foulkes estimate   =   -1263.90020861 Ry
     estimated scf accuracy    <      41.08683422 Ry

     iteration #  2     ecut=    40.00 Ry     beta=0.70
     CG style diagonalization
     ethr =  1.00E-02,  avg # of iterations =  4.7

     total cpu time spent up to now is      253.1 secs

     total energy              =   -1243.94205390 Ry
     Harris-Foulkes estimate   =   -1247.76484711 Ry
     estimated scf accuracy    <       5.76952590 Ry

     iteration #  3     ecut=    40.00 Ry     beta=0.70
     CG style diagonalization
     ethr =  6.71E-03,  avg # of iterations =  3.6

     total cpu time spent up to now is      261.5 secs

     total energy              =   -1245.05526988 Ry
     Harris-Foulkes estimate   =   -1245.12014367 Ry
     estimated scf accuracy    <       0.09182954 Ry

     iteration #  4     ecut=    40.00 Ry     beta=0.70
     CG style diagonalization
     ethr =  1.07E-04,  avg # of iterations =  4.3

     total cpu time spent up to now is      273.1 secs

     total energy              =   -1245.08322341 Ry
     Harris-Foulkes estimate   =   -1245.11079390 Ry
     estimated scf accuracy    <       0.05170518 Ry

     iteration #  5     ecut=    40.00 Ry     beta=0.70
     CG style diagonalization
     ethr =  6.01E-05,  avg # of iterations =  3.4

     total cpu time spent up to now is      283.3 secs

     total energy              =   -1245.09331922 Ry
     Harris-Foulkes estimate   =   -1245.09425956 Ry
     estimated scf accuracy    <       0.00159348 Ry

     iteration #  6     ecut=    40.00 Ry     beta=0.70
     CG style diagonalization
     c_bands:  1 eigenvalues not converged
     c_bands:  1 eigenvalues not converged
     c_bands:  1 eigenvalues not converged
     c_bands:  1 eigenvalues not converged
     c_bands:  1 eigenvalues not converged
     ethr =  1.85E-06,  avg # of iterations =  4.4

     total cpu time spent up to now is      293.0 secs

     total energy              =   -1245.09387658 Ry
     Harris-Foulkes estimate   =   -1245.09390143 Ry
     estimated scf accuracy    <       0.00004370 Ry

     iteration #  7     ecut=    40.00 Ry     beta=0.70
     CG style diagonalization
     ethr =  5.08E-08,  avg # of iterations =  4.0

     total cpu time spent up to now is      301.8 secs

     total energy              =   -1245.09389473 Ry
     Harris-Foulkes estimate   =   -1245.09389811 Ry
     estimated scf accuracy    <       0.00000482 Ry

     iteration #  8     ecut=    40.00 Ry     beta=0.70
     CG style diagonalization
     ethr =  5.60E-09,  avg # of iterations =  3.8

     total cpu time spent up to now is      311.2 secs

     End of self-consistent calculation

     Number of k-points >= 100: set verbosity='high' to print the bands.

     the Fermi energy is    44.8978 ev

!    total energy              =   -1245.09389638 Ry
     Harris-Foulkes estimate   =   -1245.09389658 Ry
     estimated scf accuracy    <       0.00000024 Ry

     The total energy is the sum of the following terms:

     one-electron contribution =     -96.23425603 Ry
     hartree contribution      =     145.94462605 Ry
     xc contribution           =    -110.72239230 Ry
     ewald contribution        =   -1183.95687433 Ry
     smearing contrib. (-TS)   =      -0.12499976 Ry

     convergence has been achieved in   8 iterations

     Forces acting on atoms (Ry/au):

     atom    1 type  1   force =     0.00000000    0.00000000    0.00000000
     atom    2 type  1   force =     0.00000000    0.00000000    0.00000000
     atom    3 type  1   force =     0.00000000    0.00000000    0.00000000
     atom    4 type  2   force =     0.00000000    0.00000000    0.00000000

     Total force =     0.000000     Total SCF correction =     0.000000


     entering subroutine stress ...

          total   stress  (Ry/bohr**3)                   (kbar)     P= 3021.01
   0.02053641   0.00000000   0.00000000       3021.01      0.00      0.00
   0.00000000   0.02053641   0.00000000          0.00   3021.01      0.00
   0.00000000   0.00000000   0.02053641          0.00      0.00   3021.01


     number of scf cycles    =   3
     number of bfgs steps    =   2

     enthalpy old            =   -1245.9364365575 Ry
     enthalpy new            =   -1245.0938963795 Ry

     CASE: enthalpy_new > enthalpy_old

     new trust radius        =       0.1166310234 bohr

     trust_radius < trust_radius_min

     resetting bfgs history

     Message from routine bfgs:
     history already reset at previous step: stopping
     new conv_thr            =       0.0000010000 Ry

     new unit-cell volume =    363.06327 a.u.^3 (    53.80043 Ang^3 )

CELL_PARAMETERS (alat=  7.13166486)
   1.000314384   0.000000000   0.000000000
   0.000000000   1.000314384   0.000000000
   0.000000000   0.000000000   1.000314384

ATOMIC_POSITIONS (crystal)
Cu       0.000000000   0.500000000   0.500000000
Cu       0.500000000   0.500000000   0.000000000
Cu       0.500000000   0.000000000   0.500000000
Au       0.000000000   0.000000000   0.000000000



     Writing output data file Prototype-La-cP4-Cu3Au.save
     NEW-OLD atomic charge density approx. for the potential
     NEW k-points: (use verbosity='high' to print them)

     total cpu time spent up to now is      314.4 secs

     Self-consistent Calculation

     iteration #  1     ecut=    40.00 Ry     beta=0.70
     CG style diagonalization
     c_bands:  1 eigenvalues not converged
     c_bands:  1 eigenvalues not converged
     ethr =  1.00E-06,  avg # of iterations =  6.2

     total cpu time spent up to now is      327.9 secs

     total energy              =   -1244.97059669 Ry
     Harris-Foulkes estimate   =   -1245.01477197 Ry
     estimated scf accuracy    <       0.05546776 Ry

     iteration #  2     ecut=    40.00 Ry     beta=0.70
     CG style diagonalization
     ethr =  6.45E-05,  avg # of iterations =  3.8

     total cpu time spent up to now is      339.0 secs

     total energy              =   -1244.98778156 Ry
     Harris-Foulkes estimate   =   -1244.99261828 Ry
     estimated scf accuracy    <       0.00723338 Ry

     iteration #  3     ecut=    40.00 Ry     beta=0.70
     CG style diagonalization
     ethr =  8.41E-06,  avg # of iterations =  3.7

     total cpu time spent up to now is      348.3 secs

     total energy              =   -1244.98943067 Ry
     Harris-Foulkes estimate   =   -1244.98950822 Ry
     estimated scf accuracy    <       0.00011300 Ry

     iteration #  4     ecut=    40.00 Ry     beta=0.70
     CG style diagonalization
     ethr =  1.31E-07,  avg # of iterations =  3.9

     total cpu time spent up to now is      356.8 secs

     total energy              =   -1244.98948066 Ry
     Harris-Foulkes estimate   =   -1244.98949493 Ry
     estimated scf accuracy    <       0.00002685 Ry

     iteration #  5     ecut=    40.00 Ry     beta=0.70
     CG style diagonalization
     ethr =  3.12E-08,  avg # of iterations =  3.3

     total cpu time spent up to now is      363.7 secs

     End of self-consistent calculation

     Number of k-points >= 100: set verbosity='high' to print the bands.

     the Fermi energy is    45.5269 ev

!    total energy              =   -1244.98948598 Ry
     Harris-Foulkes estimate   =   -1244.98948626 Ry
     estimated scf accuracy    <       0.00000034 Ry

     The total energy is the sum of the following terms:

     one-electron contribution =     -88.68444524 Ry
     hartree contribution      =     143.94358322 Ry
     xc contribution           =    -110.84684284 Ry
     ewald contribution        =   -1189.27459684 Ry
     smearing contrib. (-TS)   =      -0.12718427 Ry

     convergence has been achieved in   5 iterations

     Forces acting on atoms (Ry/au):

     atom    1 type  1   force =     0.00000000    0.00000000    0.00000000
     atom    2 type  1   force =     0.00000000    0.00000000    0.00000000
     atom    3 type  1   force =     0.00000000    0.00000000    0.00000000
     atom    4 type  2   force =     0.00000000    0.00000000    0.00000000

     Total force =     0.000000     Total SCF correction =     0.000000


     entering subroutine stress ...

          total   stress  (Ry/bohr**3)                   (kbar)     P= 3224.66
   0.02192078   0.00000000   0.00000000       3224.66      0.00      0.00
   0.00000000   0.02192078   0.00000000          0.00   3224.66      0.00
   0.00000000   0.00000000   0.02192078          0.00      0.00   3224.66


     The maximum number of steps has been reached.

     End of BFGS Geometry Optimization
Begin final coordinates
     new unit-cell volume =    363.06327 a.u.^3 (    53.80043 Ang^3 )

CELL_PARAMETERS (alat=  7.13166486)
   1.000314384   0.000000000   0.000000000
   0.000000000   1.000314384   0.000000000
   0.000000000   0.000000000   1.000314384

ATOMIC_POSITIONS (crystal)
Cu       0.000000000   0.500000000   0.500000000
Cu       0.500000000   0.500000000   0.000000000
Cu       0.500000000   0.000000000   0.500000000
Au       0.000000000   0.000000000   0.000000000
End final coordinates



     A final scf calculation at the relaxed structure.
     The G-vectors are recalculated for the final unit cell
     Results may differ from those at the preceding step.
 
     Parallelization info
     --------------------
     sticks:   dense  smooth     PW     G-vecs:    dense   smooth      PW
     Min         164     164     48                 3132     3132     524
     Max         165     165     49                 3135     3135     527
     Sum         657     657    193                12533    12533    2103
 


     bravais-lattice index     =            0
     lattice parameter (alat)  =       7.1317  a.u.
     unit-cell volume          =     363.0633 (a.u.)^3
     number of atoms/cell      =            4
     number of atomic types    =            2
     number of electrons       =        86.00
     number of Kohn-Sham states=           52
     kinetic-energy cutoff     =      40.0000  Ry
     charge density cutoff     =     160.0000  Ry
     convergence threshold     =      1.0E-06
     mixing beta               =       0.7000
     number of iterations used =            8  plain     mixing
     Exchange-correlation      = SLA-PZ-NOGX-NOGC ( 1 1 0 0 0)
     EXX-fraction              =        0.00

     celldm(1)=   7.131665  celldm(2)=   0.000000  celldm(3)=   0.000000
     celldm(4)=   0.000000  celldm(5)=   0.000000  celldm(6)=   0.000000

     crystal axes: (cart. coord. in units of alat)
               a(1) = (   1.000314   0.000000   0.000000 )  
               a(2) = (   0.000000   1.000314   0.000000 )  
               a(3) = (   0.000000   0.000000   1.000314 )  

     reciprocal axes: (cart. coord. in units 2 pi/alat)
               b(1) = (  0.999686  0.000000  0.000000 )  
               b(2) = (  0.000000  0.999686  0.000000 )  
               b(3) = (  0.000000  0.000000  0.999686 )  


     PseudoPot. # 1 for Er read from file:
     /home/cwx6513/pp.La/Er.UPF
     MD5 check sum: e152ae21b84514339d8526f066caf99b
     Pseudo is Norm-conserving, Zval = 22.0
     Generated in analytical, separable form
     Using radial grid of 1267 points,  6 beta functions with: 
                l(1) =   0
                l(2) =   0
                l(3) =   1
                l(4) =   1
                l(5) =   2
                l(6) =   3

     PseudoPot. # 2 for Dy read from file:
     /home/cwx6513/pp.La/Dy.UPF
     MD5 check sum: 9597327bec62616a94a14d07f3fd9936
     Pseudo is Norm-conserving, Zval = 20.0
     Generated in analytical, separable form
     Using radial grid of 1265 points,  6 beta functions with: 
                l(1) =   0
                l(2) =   0
                l(3) =   1
                l(4) =   1
                l(5) =   2
                l(6) =   3

     atomic species   valence    mass     pseudopotential
        Cu            22.00    63.54600     Er( 1.00)
        Au            20.00   196.96600     Dy( 1.00)

     48 Sym. Ops., with inversion, found



   Cartesian axes

     site n.     atom                  positions (alat units)
         1           Cu  tau(   1) = (   0.0000000   0.5001572   0.5001572  )
         2           Cu  tau(   2) = (   0.5001572   0.5001572   0.0000000  )
         3           Cu  tau(   3) = (   0.5001572   0.0000000   0.5001572  )
         4           Au  tau(   4) = (   0.0000000   0.0000000   0.0000000  )

     number of k points=   100  gaussian smearing, width (Ry)=  0.1000

     Number of k-points >= 100: set verbosity='high' to print them.

     Dense  grid:    12533 G-vectors     FFT dimensions: (  30,  30,  30)

     Largest allocated arrays     est. size (Mb)     dimensions
        Kohn-Sham Wavefunctions         0.32 Mb     (    402,   52)
        NL pseudopotentials             0.49 Mb     (    402,   80)
        Each V/rho on FFT grid          0.11 Mb     (   7200)
        Each G-vector array             0.02 Mb     (   3134)
        G-vector shells                 0.00 Mb     (    175)
     Largest temporary arrays     est. size (Mb)     dimensions
        Each subspace H/S matrix        0.04 Mb     (  52,  52)
        Each <psi_i|beta_j> matrix      0.06 Mb     (     80,   52)
        Arrays for rho mixing           0.88 Mb     (   7200,   8)

     Initial potential from superposition of free atoms

     Starting from uniform charge
     Starting wfc are    0 randomized atomic wfcs

     Writing output data file Prototype-La-cP4-Cu3Au.save

     total cpu time spent up to now is      370.5 secs

     Self-consistent Calculation

     iteration #  1     ecut=    40.00 Ry     beta=0.70
     CG style diagonalization
     c_bands:  4 eigenvalues not converged
     c_bands:  5 eigenvalues not converged
     c_bands:  2 eigenvalues not converged
     c_bands:  5 eigenvalues not converged
     c_bands:  5 eigenvalues not converged
     c_bands:  3 eigenvalues not converged
     c_bands:  4 eigenvalues not converged
     c_bands:  3 eigenvalues not converged
     c_bands:  2 eigenvalues not converged
     c_bands:  4 eigenvalues not converged
     c_bands:  2 eigenvalues not converged
     c_bands:  3 eigenvalues not converged
     c_bands:  5 eigenvalues not converged
     c_bands:  4 eigenvalues not converged
     c_bands:  4 eigenvalues not converged
     c_bands:  3 eigenvalues not converged
     c_bands:  5 eigenvalues not converged
     c_bands:  3 eigenvalues not converged
     c_bands:  4 eigenvalues not converged
     c_bands:  3 eigenvalues not converged
     c_bands:  4 eigenvalues not converged
     c_bands:  3 eigenvalues not converged
     c_bands:  4 eigenvalues not converged
     c_bands:  5 eigenvalues not converged
     c_bands:  4 eigenvalues not converged
     c_bands:  3 eigenvalues not converged
     c_bands:  3 eigenvalues not converged
     c_bands:  3 eigenvalues not converged
     c_bands:  5 eigenvalues not converged
     c_bands:  4 eigenvalues not converged
     c_bands:  4 eigenvalues not converged
     c_bands:  3 eigenvalues not converged
     c_bands:  3 eigenvalues not converged
     c_bands:  4 eigenvalues not converged
     c_bands:  5 eigenvalues not converged
     c_bands:  1 eigenvalues not converged
     c_bands:  3 eigenvalues not converged
     c_bands:  5 eigenvalues not converged
     c_bands:  4 eigenvalues not converged
     c_bands:  5 eigenvalues not converged
     c_bands:  5 eigenvalues not converged
     c_bands:  5 eigenvalues not converged
     c_bands:  4 eigenvalues not converged
     c_bands:  4 eigenvalues not converged
     c_bands:  4 eigenvalues not converged
     c_bands:  3 eigenvalues not converged
     c_bands:  4 eigenvalues not converged
     c_bands:  3 eigenvalues not converged
     c_bands:  5 eigenvalues not converged
     c_bands:  5 eigenvalues not converged
     c_bands:  5 eigenvalues not converged
     c_bands:  2 eigenvalues not converged
     c_bands:  2 eigenvalues not converged
     c_bands:  5 eigenvalues not converged
     c_bands:  4 eigenvalues not converged
     c_bands:  3 eigenvalues not converged
     c_bands:  3 eigenvalues not converged
     c_bands:  5 eigenvalues not converged
     c_bands:  3 eigenvalues not converged
     c_bands:  5 eigenvalues not converged
     c_bands:  4 eigenvalues not converged
     c_bands:  4 eigenvalues not converged
     c_bands:  3 eigenvalues not converged
     c_bands:  5 eigenvalues not converged
     c_bands:  4 eigenvalues not converged
     c_bands:  5 eigenvalues not converged
     c_bands:  4 eigenvalues not converged
     c_bands:  4 eigenvalues not converged
     c_bands:  5 eigenvalues not converged
     c_bands:  5 eigenvalues not converged
     c_bands:  4 eigenvalues not converged
     c_bands:  4 eigenvalues not converged
     c_bands:  5 eigenvalues not converged
     c_bands:  5 eigenvalues not converged
     c_bands:  4 eigenvalues not converged
     c_bands:  4 eigenvalues not converged
     c_bands:  4 eigenvalues not converged
     c_bands:  4 eigenvalues not converged
     c_bands:  5 eigenvalues not converged
     c_bands:  3 eigenvalues not converged
     c_bands:  3 eigenvalues not converged
     c_bands:  5 eigenvalues not converged
     c_bands:  4 eigenvalues not converged
     c_bands:  3 eigenvalues not converged
     c_bands:  5 eigenvalues not converged
     c_bands:  5 eigenvalues not converged
     c_bands:  4 eigenvalues not converged
     c_bands:  2 eigenvalues not converged
     c_bands:  5 eigenvalues not converged
     c_bands:  5 eigenvalues not converged
     c_bands:  3 eigenvalues not converged
     c_bands:  3 eigenvalues not converged
     c_bands:  2 eigenvalues not converged
     c_bands:  3 eigenvalues not converged
     c_bands:  3 eigenvalues not converged
     c_bands:  3 eigenvalues not converged
     c_bands:  5 eigenvalues not converged
     c_bands:  4 eigenvalues not converged
     c_bands:  2 eigenvalues not converged
     c_bands:  2 eigenvalues not converged
     ethr =  1.00E-06,  avg # of iterations = 51.3

     total cpu time spent up to now is      476.8 secs

     total energy              =   -1120.37508170 Ry
     Harris-Foulkes estimate   =   -1459.31870354 Ry
     estimated scf accuracy    <     435.32710690 Ry

     iteration #  2     ecut=    40.00 Ry     beta=0.70
     CG style diagonalization
     c_bands:  1 eigenvalues not converged
     c_bands:  1 eigenvalues not converged
     c_bands:  1 eigenvalues not converged
     ethr =  1.00E-02,  avg # of iterations =  8.5

     total cpu time spent up to now is      496.2 secs

     total energy              =   -1231.01082916 Ry
     Harris-Foulkes estimate   =   -1262.53892131 Ry
     estimated scf accuracy    <      44.53349218 Ry

     iteration #  3     ecut=    40.00 Ry     beta=0.70
     CG style diagonalization
     ethr =  1.00E-02,  avg # of iterations =  4.9

     total cpu time spent up to now is      507.5 secs

     total energy              =   -1243.35539868 Ry
     Harris-Foulkes estimate   =   -1247.39443154 Ry
     estimated scf accuracy    <       7.92441549 Ry

     iteration #  4     ecut=    40.00 Ry     beta=0.70
     CG style diagonalization
     ethr =  9.21E-03,  avg # of iterations =  3.4

     total cpu time spent up to now is      514.6 secs

     total energy              =   -1244.87229200 Ry
     Harris-Foulkes estimate   =   -1245.11674094 Ry
     estimated scf accuracy    <       0.37511519 Ry

     iteration #  5     ecut=    40.00 Ry     beta=0.70
     CG style diagonalization
     ethr =  4.36E-04,  avg # of iterations =  4.2

     total cpu time spent up to now is      527.0 secs

     total energy              =   -1244.96620929 Ry
     Harris-Foulkes estimate   =   -1245.05641898 Ry
     estimated scf accuracy    <       0.14895514 Ry

     iteration #  6     ecut=    40.00 Ry     beta=0.70
     CG style diagonalization
     ethr =  1.73E-04,  avg # of iterations =  3.6

     total cpu time spent up to now is      535.2 secs

     total energy              =   -1244.99210212 Ry
     Harris-Foulkes estimate   =   -1244.99315350 Ry
     estimated scf accuracy    <       0.00185729 Ry

     iteration #  7     ecut=    40.00 Ry     beta=0.70
     CG style diagonalization
     c_bands:  1 eigenvalues not converged
     c_bands:  1 eigenvalues not converged
     c_bands:  1 eigenvalues not converged
     c_bands:  1 eigenvalues not converged
     c_bands:  2 eigenvalues not converged
     c_bands:  1 eigenvalues not converged
     c_bands:  1 eigenvalues not converged
     c_bands:  1 eigenvalues not converged
     c_bands:  1 eigenvalues not converged
     c_bands:  1 eigenvalues not converged
     c_bands:  1 eigenvalues not converged
     c_bands:  2 eigenvalues not converged
     c_bands:  1 eigenvalues not converged
     c_bands:  1 eigenvalues not converged
     c_bands:  1 eigenvalues not converged
     c_bands:  1 eigenvalues not converged
     c_bands:  1 eigenvalues not converged
     c_bands:  1 eigenvalues not converged
     c_bands:  1 eigenvalues not converged
     c_bands:  1 eigenvalues not converged
     c_bands:  1 eigenvalues not converged
     c_bands:  1 eigenvalues not converged
     c_bands:  1 eigenvalues not converged
     c_bands:  1 eigenvalues not converged
     c_bands:  1 eigenvalues not converged
     c_bands:  3 eigenvalues not converged
     c_bands:  1 eigenvalues not converged
     c_bands:  1 eigenvalues not converged
     ethr =  2.16E-06,  avg # of iterations =  4.9

     total cpu time spent up to now is      547.1 secs

     total energy              =   -1244.99308711 Ry
     Harris-Foulkes estimate   =   -1244.99314632 Ry
     estimated scf accuracy    <       0.00008357 Ry

     iteration #  8     ecut=    40.00 Ry     beta=0.70
     CG style diagonalization
     c_bands:  1 eigenvalues not converged
     c_bands:  1 eigenvalues not converged
     c_bands:  1 eigenvalues not converged
     c_bands:  1 eigenvalues not converged
     c_bands:  1 eigenvalues not converged
     c_bands:  1 eigenvalues not converged
     ethr =  9.72E-08,  avg # of iterations =  4.1

     total cpu time spent up to now is      556.2 secs

     total energy              =   -1244.99312740 Ry
     Harris-Foulkes estimate   =   -1244.99313442 Ry
     estimated scf accuracy    <       0.00000975 Ry

     iteration #  9     ecut=    40.00 Ry     beta=0.70
     CG style diagonalization
     c_bands:  1 eigenvalues not converged
     ethr =  1.13E-08,  avg # of iterations =  4.0

     total cpu time spent up to now is      565.2 secs

     total energy              =   -1244.99313078 Ry
     Harris-Foulkes estimate   =   -1244.99313284 Ry
     estimated scf accuracy    <       0.00000325 Ry

     iteration # 10     ecut=    40.00 Ry     beta=0.70
     CG style diagonalization
     ethr =  3.78E-09,  avg # of iterations =  3.6

     total cpu time spent up to now is      572.5 secs

     End of self-consistent calculation

     Number of k-points >= 100: set verbosity='high' to print the bands.

     the Fermi energy is    45.5259 ev

!    total energy              =   -1244.99313150 Ry
     Harris-Foulkes estimate   =   -1244.99313153 Ry
     estimated scf accuracy    <       0.00000004 Ry

     The total energy is the sum of the following terms:

     one-electron contribution =     -88.69321144 Ry
     hartree contribution      =     143.94963769 Ry
     xc contribution           =    -110.84778937 Ry
     ewald contribution        =   -1189.27459684 Ry
     smearing contrib. (-TS)   =      -0.12717154 Ry

     convergence has been achieved in  10 iterations

     Forces acting on atoms (Ry/au):

     atom    1 type  1   force =     0.00000000    0.00000000    0.00000000
     atom    2 type  1   force =     0.00000000    0.00000000    0.00000000
     atom    3 type  1   force =     0.00000000    0.00000000    0.00000000
     atom    4 type  2   force =     0.00000000    0.00000000    0.00000000

     Total force =     0.000000     Total SCF correction =     0.000000


     entering subroutine stress ...

          total   stress  (Ry/bohr**3)                   (kbar)     P= 3230.07
   0.02195759   0.00000000   0.00000000       3230.07      0.00      0.00
   0.00000000   0.02195759   0.00000000          0.00   3230.07      0.00
   0.00000000   0.00000000   0.02195759          0.00      0.00   3230.07


     Writing output data file Prototype-La-cP4-Cu3Au.save
 
     init_run     :      4.43s CPU      5.36s WALL (       2 calls)
     electrons    :    508.95s CPU    554.98s WALL (       5 calls)
     update_pot   :      0.93s CPU      0.96s WALL (       3 calls)
     forces       :      2.27s CPU      2.40s WALL (       5 calls)
     stress       :      6.63s CPU      6.78s WALL (       5 calls)

     Called by init_run:
     wfcinit      :      4.12s CPU      4.47s WALL (       2 calls)
     potinit      :      0.12s CPU      0.12s WALL (       2 calls)

     Called by electrons:
     c_bands      :    487.81s CPU    517.67s WALL (      37 calls)
     sum_band     :     20.81s CPU     21.71s WALL (      37 calls)
     v_of_rho     :      0.03s CPU      0.03s WALL (      42 calls)
     mix_rho      :      0.02s CPU      0.03s WALL (      37 calls)

     Called by c_bands:
     init_us_2    :      1.72s CPU      1.90s WALL (    8600 calls)
     ccgdiagg     :    407.43s CPU    429.09s WALL (    4198 calls)
     wfcrot       :     82.68s CPU     89.63s WALL (    4298 calls)

     Called by *cgdiagg:
     h_psi        :    334.19s CPU    358.42s WALL ( 1062173 calls)
     cdiaghg      :      4.41s CPU      4.96s WALL (    4298 calls)

     Called by h_psi:
     add_vuspsi   :     24.32s CPU     32.18s WALL ( 1062173 calls)

     General routines
     calbec       :     80.65s CPU     81.12s WALL ( 2121048 calls)
     fft          :      0.05s CPU      0.05s WALL (     191 calls)
     fftw         :    270.66s CPU    272.55s WALL ( 2755142 calls)
     davcio       :      1.30s CPU      2.77s WALL (   12300 calls)
 
     Parallel routines
     fft_scatter  :    118.25s CPU    121.02s WALL ( 2755333 calls)
 
     PWSCF        :  8m44.29s CPU     9m34.89s WALL

 
   This run was terminated on:  22:52:17  22Mar2018            

=------------------------------------------------------------------------------=
   JOB DONE.
=------------------------------------------------------------------------------=
