
     Program PWSCF v.5.0.2 starts on 22Mar2018 at 22:42:44 

     This program is part of the open-source Quantum ESPRESSO suite
     for quantum simulation of materials; please cite
         "P. Giannozzi et al., J. Phys.:Condens. Matter 21 395502 (2009);
          URL http://www.quantum-espresso.org", 
     in publications or presentations arising from this work. More details at
     http://www.quantum-espresso.org/quote.php

     Parallel version (MPI), running on     4 processors
     R & G space division:  proc/nbgrp/npool/nimage =       4

     Current dimensions of program PWSCF are:
     Max number of different atomic species (ntypx) = 10
     Max number of k-points (npk) =  40000
     Max angular momentum in pseudopotentials (lmaxx) =  3
     Waiting for input...
     Reading input from standard input

     Subspace diagonalization in iterative solution of the eigenvalue problem:
     a serial algorithm will be used

 
     Parallelization info
     --------------------
     sticks:   dense  smooth     PW     G-vecs:    dense   smooth      PW
     Min         207     207     61                 7381     7381    1191
     Max         208     208     62                 7386     7386    1192
     Sum         829     829    247                29529    29529    4767
 


     bravais-lattice index     =            0
     lattice parameter (alat)  =       7.0151  a.u.
     unit-cell volume          =     862.2778 (a.u.)^3
     number of atoms/cell      =           12
     number of atomic types    =            2
     number of electrons       =       256.00
     number of Kohn-Sham states=          154
     kinetic-energy cutoff     =      40.0000  Ry
     charge density cutoff     =     160.0000  Ry
     convergence threshold     =      1.0E-04
     mixing beta               =       0.7000
     number of iterations used =            8  plain     mixing
     Exchange-correlation      = SLA-PZ-NOGX-NOGC ( 1 1 0 0 0)
     EXX-fraction              =        0.00
     nstep                     =           50


     celldm(1)=   7.015105  celldm(2)=   0.000000  celldm(3)=   0.000000
     celldm(4)=   0.000000  celldm(5)=   0.000000  celldm(6)=   0.000000

     crystal axes: (cart. coord. in units of alat)
               a(1) = (   1.000000   0.000000   0.000000 )  
               a(2) = (   0.000000   1.315963   0.000000 )  
               a(3) = (   0.000000   0.000000   1.898020 )  

     reciprocal axes: (cart. coord. in units 2 pi/alat)
               b(1) = (  1.000000  0.000000  0.000000 )  
               b(2) = (  0.000000  0.759900  0.000000 )  
               b(3) = (  0.000000  0.000000  0.526865 )  


     PseudoPot. # 1 for Er read from file:
     /home/cwx6513/pp.La/Er.UPF
     MD5 check sum: e152ae21b84514339d8526f066caf99b
     Pseudo is Norm-conserving, Zval = 22.0
     Generated in analytical, separable form
     Using radial grid of 1267 points,  6 beta functions with: 
                l(1) =   0
                l(2) =   0
                l(3) =   1
                l(4) =   1
                l(5) =   2
                l(6) =   3

     PseudoPot. # 2 for Dy read from file:
     /home/cwx6513/pp.La/Dy.UPF
     MD5 check sum: 9597327bec62616a94a14d07f3fd9936
     Pseudo is Norm-conserving, Zval = 20.0
     Generated in analytical, separable form
     Using radial grid of 1265 points,  6 beta functions with: 
                l(1) =   0
                l(2) =   0
                l(3) =   1
                l(4) =   1
                l(5) =   2
                l(6) =   3

     atomic species   valence    mass     pseudopotential
        Co            22.00    58.93320     Er( 1.00)
        Si            20.00    28.08550     Dy( 1.00)

      8 Sym. Ops., with inversion, found ( 6 have fractional translation)



   Cartesian axes

     site n.     atom                  positions (alat units)
         1           Co  tau(   1) = (   0.7500000   1.0875135   0.8270358  )
         2           Co  tau(   2) = (   0.2500000   0.2284499   1.0709846  )
         3           Co  tau(   3) = (   0.7500000   0.4295318   0.1219744  )
         4           Co  tau(   4) = (   0.2500000   0.8864316   1.7760460  )
         5           Co  tau(   5) = (   0.2500000   0.7067855   0.5358966  )
         6           Co  tau(   6) = (   0.7500000   0.6091779   1.3621238  )
         7           Co  tau(   7) = (   0.2500000   0.0488038   0.4131136  )
         8           Co  tau(   8) = (   0.7500000   1.2671596   1.4849068  )
         9           Si  tau(   9) = (   0.2500000   0.2669484   1.6960710  )
        10           Si  tau(  10) = (   0.7500000   1.0490149   0.2019494  )
        11           Si  tau(  11) = (   0.2500000   0.9249301   1.1509596  )
        12           Si  tau(  12) = (   0.7500000   0.3910333   0.7470608  )

     number of k points=    12  gaussian smearing, width (Ry)=  0.1000
                       cart. coord. in units 2pi/alat
        k(    1) = (   0.0000000   0.0000000   0.0000000), wk =   0.0833333
        k(    2) = (   0.0000000   0.0000000   0.1317162), wk =   0.1666667
        k(    3) = (   0.0000000   0.0000000  -0.2634324), wk =   0.0833333
        k(    4) = (   0.0000000   0.2532999   0.0000000), wk =   0.1666667
        k(    5) = (   0.0000000   0.2532999   0.1317162), wk =   0.3333333
        k(    6) = (   0.0000000   0.2532999  -0.2634324), wk =   0.1666667
        k(    7) = (  -0.5000000   0.0000000   0.0000000), wk =   0.0833333
        k(    8) = (  -0.5000000   0.0000000   0.1317162), wk =   0.1666667
        k(    9) = (  -0.5000000   0.0000000  -0.2634324), wk =   0.0833333
        k(   10) = (  -0.5000000   0.2532999   0.0000000), wk =   0.1666667
        k(   11) = (  -0.5000000   0.2532999   0.1317162), wk =   0.3333333
        k(   12) = (  -0.5000000   0.2532999  -0.2634324), wk =   0.1666667

     Dense  grid:    29529 G-vectors     FFT dimensions: (  30,  40,  54)

     Largest allocated arrays     est. size (Mb)     dimensions
        Kohn-Sham Wavefunctions         2.17 Mb     (    922,  154)
        NL pseudopotentials             3.38 Mb     (    922,  240)
        Each V/rho on FFT grid          0.26 Mb     (  16800)
        Each G-vector array             0.06 Mb     (   7386)
        G-vector shells                 0.06 Mb     (   7386)
     Largest temporary arrays     est. size (Mb)     dimensions
        Each subspace H/S matrix        0.36 Mb     ( 154, 154)
        Each <psi_i|beta_j> matrix      0.56 Mb     (    240,  154)
        Arrays for rho mixing           2.05 Mb     (  16800,   8)

     Initial potential from superposition of free atoms

     Starting from uniform charge
     Starting wfc are    0 randomized atomic wfcs

     total cpu time spent up to now is        3.6 secs

     Self-consistent Calculation

     iteration #  1     ecut=    40.00 Ry     beta=0.70
     CG style diagonalization
     c_bands:  1 eigenvalues not converged
     c_bands:  1 eigenvalues not converged
     c_bands:  1 eigenvalues not converged
     c_bands:  2 eigenvalues not converged
     c_bands:  2 eigenvalues not converged
     c_bands:  3 eigenvalues not converged
     c_bands:  1 eigenvalues not converged
     ethr =  1.00E-02,  avg # of iterations = 12.2

     total cpu time spent up to now is       61.7 secs

     total energy              =   -3367.20707362 Ry
     Harris-Foulkes estimate   =   -4131.04354087 Ry
     estimated scf accuracy    <     985.00374840 Ry

     iteration #  2     ecut=    40.00 Ry     beta=0.70
     CG style diagonalization
     c_bands:  1 eigenvalues not converged
     ethr =  1.00E-02,  avg # of iterations =  9.3

     total cpu time spent up to now is       93.4 secs

     total energy              =   -3618.07163921 Ry
     Harris-Foulkes estimate   =   -3697.89341881 Ry
     estimated scf accuracy    <     111.22666153 Ry

     iteration #  3     ecut=    40.00 Ry     beta=0.70
     CG style diagonalization
     ethr =  1.00E-02,  avg # of iterations =  5.0

     total cpu time spent up to now is      109.5 secs

     total energy              =   -3647.19013541 Ry
     Harris-Foulkes estimate   =   -3665.13447297 Ry
     estimated scf accuracy    <      36.99837718 Ry

     iteration #  4     ecut=    40.00 Ry     beta=0.70
     CG style diagonalization
     ethr =  1.00E-02,  avg # of iterations =  3.7

     total cpu time spent up to now is      121.6 secs

     total energy              =   -3654.84069546 Ry
     Harris-Foulkes estimate   =   -3655.97460681 Ry
     estimated scf accuracy    <       2.10882320 Ry

     iteration #  5     ecut=    40.00 Ry     beta=0.70
     CG style diagonalization
     ethr =  8.24E-04,  avg # of iterations =  3.9

     total cpu time spent up to now is      134.8 secs

     total energy              =   -3655.45246209 Ry
     Harris-Foulkes estimate   =   -3655.58016923 Ry
     estimated scf accuracy    <       0.22847649 Ry

     iteration #  6     ecut=    40.00 Ry     beta=0.70
     CG style diagonalization
     ethr =  8.92E-05,  avg # of iterations =  4.1

     total cpu time spent up to now is      148.5 secs

     total energy              =   -3655.50775329 Ry
     Harris-Foulkes estimate   =   -3655.52664916 Ry
     estimated scf accuracy    <       0.03654404 Ry

     iteration #  7     ecut=    40.00 Ry     beta=0.70
     CG style diagonalization
     ethr =  1.43E-05,  avg # of iterations =  3.8

     total cpu time spent up to now is      160.6 secs

     total energy              =   -3655.51394804 Ry
     Harris-Foulkes estimate   =   -3655.51570980 Ry
     estimated scf accuracy    <       0.00305318 Ry

     iteration #  8     ecut=    40.00 Ry     beta=0.70
     CG style diagonalization
     c_bands:  2 eigenvalues not converged
     ethr =  1.19E-06,  avg # of iterations =  4.2

     total cpu time spent up to now is      174.0 secs

     total energy              =   -3655.51473382 Ry
     Harris-Foulkes estimate   =   -3655.51489094 Ry
     estimated scf accuracy    <       0.00030396 Ry

     iteration #  9     ecut=    40.00 Ry     beta=0.70
     CG style diagonalization
     ethr =  1.19E-07,  avg # of iterations =  4.0

     total cpu time spent up to now is      187.5 secs

     End of self-consistent calculation

          k = 0.0000 0.0000 0.0000 (  3675 PWs)   bands (ev):

   -48.5007 -48.4254 -48.4238 -48.4225 -48.3799 -48.3067 -48.2424 -48.2370
   -32.3425 -32.3347 -32.3326 -32.3260 -11.4666 -11.3858 -11.2772 -11.2291
   -11.1256 -11.0542 -11.0282 -11.0196 -10.9879 -10.8960 -10.7573 -10.7448
   -10.6667 -10.6613 -10.6581 -10.6567 -10.5782 -10.5097 -10.4988 -10.4607
   -10.4052 -10.3007 -10.1758 -10.1253  -0.0423   0.0445   0.0873   0.0941
     0.1050   0.1325   0.1335   0.2019   0.4420   0.4887   0.5218   0.5913
    30.2795  30.5835  30.7437  30.7671  30.8363  30.8709  31.2248  31.3521
    31.5804  31.7955  31.9641  32.4141  32.5464  32.7953  32.9869  33.0253
    33.4831  33.5482  33.5586  33.7678  34.1360  34.2972  34.3668  34.3733
    34.5209  34.7674  35.1641  35.1930  35.3444  35.4579  35.6667  35.7202
    35.7932  35.8333  36.0038  36.3336  37.1017  37.1149  37.1458  37.7590
    37.9891  38.2579  38.3606  39.0662  39.8379  40.2775  40.6222  40.9146
    41.0369  41.0686  41.1644  42.1052  42.2468  42.3017  42.5823  42.5951
    43.1537  43.7859  43.8799  43.8985  44.0314  44.2241  44.3907  45.9426
    47.2551  48.9797  49.2668  49.3744  50.7797  52.1287  52.1567  55.0722
    55.1811  55.4842  55.9138  56.1796  56.2360  56.4621  57.1372  57.1857
    57.3877  57.4891  57.5717  57.6079  57.8907  57.9529  58.6104  58.6762
    58.8729  58.8838  58.8853  59.0478  59.0992  59.4954  59.7683  60.1412
    60.2453  60.4827  61.2724  61.4227  61.4486  62.3630  62.8328  62.9348
    63.0091  63.1806

          k = 0.0000 0.0000 0.1317 (  3675 PWs)   bands (ev):

   -48.4886 -48.4399 -48.4370 -48.4174 -48.3687 -48.3337 -48.2459 -48.2122
   -32.3388 -32.3384 -32.3316 -32.3284 -11.4499 -11.3533 -11.3092 -11.2391
   -11.1679 -11.1065 -11.0827 -10.9528 -10.9263 -10.9222 -10.7950 -10.7699
   -10.6678 -10.6632 -10.6467 -10.6382 -10.5440 -10.4985 -10.4669 -10.4294
   -10.4129 -10.3146 -10.1721 -10.1388  -0.0250   0.0240   0.0935   0.1031
     0.1149   0.1259   0.1363   0.1905   0.4455   0.4741   0.5350   0.5757
    30.3481  30.3614  30.5807  30.6019  30.8368  31.0510  31.2424  31.3853
    31.9274  31.9369  32.2781  32.7002  32.7740  32.9108  32.9841  33.0678
    33.2812  33.3243  33.7207  33.7350  34.1226  34.1242  34.2103  34.3426
    34.4448  34.7758  34.8252  34.8397  34.9648  35.3261  35.4155  35.5195
    35.9431  36.1756  36.3289  36.8872  36.9653  37.2700  37.4715  37.4797
    37.6601  37.8633  38.3041  39.2548  39.6591  40.0182  40.6495  40.9499
    40.9504  41.2066  41.5775  42.0489  42.1910  42.4623  42.4908  42.5186
    43.0827  43.4124  43.5653  43.7473  43.8361  44.1607  45.7588  46.2926
    48.4449  48.6830  49.2764  49.4571  50.7676  52.0064  52.3030  53.6628
    54.4335  55.6498  55.6957  55.9385  56.3145  56.5396  56.7742  56.7786
    57.0220  57.6649  57.7537  57.9113  57.9498  58.3382  58.4227  58.6650
    58.7309  58.8159  59.0089  59.3051  59.4407  59.8701  59.9999  60.1083
    60.4098  60.7487  61.0710  61.4817  61.5193  62.2154  62.2720  62.4552
    62.6925  62.9200

          k = 0.0000 0.0000-0.2634 (  3690 PWs)   bands (ev):

   -48.4856 -48.4856 -48.4346 -48.4346 -48.3437 -48.3437 -48.2373 -48.2373
   -32.3431 -32.3431 -32.3321 -32.3321 -11.4026 -11.4026 -11.2729 -11.2729
   -11.1931 -11.1931 -11.0071 -11.0071 -10.8800 -10.8800 -10.8205 -10.8205
   -10.6535 -10.6535 -10.6522 -10.6522 -10.4923 -10.4923 -10.4871 -10.4871
   -10.3656 -10.3656 -10.1632 -10.1632   0.0019   0.0019   0.1011   0.1011
     0.1248   0.1248   0.1478   0.1478   0.4498   0.4498   0.5507   0.5507
    30.3466  30.3466  30.3761  30.3761  30.9649  30.9649  31.7808  31.7808
    31.9538  31.9538  32.4534  32.4534  32.9318  32.9318  33.1396  33.1396
    33.4444  33.4444  33.7341  33.7341  33.8156  33.8156  34.0868  34.0868
    34.4516  34.4516  34.8851  34.8851  35.2782  35.2782  35.3055  35.3055
    35.8173  35.8173  36.7249  36.7249  36.9306  36.9306  37.5277  37.5277
    38.0852  38.0852  38.6335  38.6335  39.4851  39.4851  40.7737  40.7737
    41.7532  41.7532  41.7871  41.7871  42.0227  42.0227  42.5470  42.5470
    42.9108  42.9108  43.5107  43.5107  43.9887  43.9887  47.2589  47.2589
    48.5464  48.5464  49.4719  49.4719  51.1394  51.1394  52.2546  52.2546
    55.1371  55.1371  56.1032  56.1032  56.2083  56.2083  56.3882  56.3882
    57.3741  57.3741  57.4573  57.4573  57.7092  57.7092  58.8345  58.8345
    59.1498  59.1498  59.3785  59.3785  59.7354  59.7355  60.5191  60.5192
    60.6803  60.6803  60.9173  60.9173  61.6533  61.6533  62.1179  62.1179
    63.1075  63.1075

          k = 0.0000 0.2533 0.0000 (  3664 PWs)   bands (ev):

   -48.4698 -48.4449 -48.4212 -48.4023 -48.3299 -48.3062 -48.2654 -48.2525
   -32.3423 -32.3417 -32.3272 -32.3181 -11.2998 -11.2833 -11.1725 -11.1342
   -11.0778 -11.0760 -11.0354 -11.0304 -10.9605 -10.9495 -10.8441 -10.7698
   -10.7645 -10.6546 -10.6091 -10.5887 -10.5248 -10.4887 -10.4656 -10.4616
   -10.4085 -10.3283 -10.3268 -10.2550  -0.0153   0.0376   0.0799   0.0803
     0.0849   0.1329   0.1349   0.1698   0.3926   0.4227   0.5147   0.5461
    30.8138  30.8419  31.1825  31.2158  31.3319  31.3490  31.6010  31.7311
    31.8378  31.8731  32.1501  32.3690  32.6859  32.7507  32.8758  33.2049
    33.2673  33.2970  33.5827  33.7659  33.8836  33.9583  34.3925  34.5510
    34.7541  34.8642  34.9499  35.0265  35.0814  35.4944  35.6068  35.7855
    35.8638  36.0750  36.4513  36.5837  36.7991  36.8894  37.0096  38.0543
    38.2142  38.3561  38.4501  38.5867  39.7220  39.9773  40.3540  40.4455
    40.5702  41.1473  41.3379  41.7512  41.9385  42.1375  42.4217  42.4269
    42.6258  42.7201  42.9000  43.0519  43.2801  44.0333  44.1560  44.2330
    45.3689  46.0503  50.8159  52.4717  52.8262  53.2231  54.5874  54.8483
    55.2972  55.4080  55.4619  56.2932  56.4788  56.5553  56.6091  56.9815
    57.0810  57.2259  57.3460  57.6448  57.9525  58.1028  58.4352  58.7616
    58.8501  59.0323  59.2534  59.3006  59.3194  59.5121  60.2096  60.3033
    60.9057  61.0837  61.2321  61.6927  61.8542  62.0131  62.5667  62.6513
    63.3981  63.4297

          k = 0.0000 0.2533 0.1317 (  3669 PWs)   bands (ev):

   -48.4684 -48.4416 -48.4324 -48.4129 -48.3300 -48.3140 -48.2612 -48.2593
   -32.3458 -32.3411 -32.3273 -32.3230 -11.3161 -11.2622 -11.2234 -11.1595
   -11.1337 -11.0807 -10.9940 -10.9937 -10.9445 -10.9414 -10.8599 -10.7958
   -10.7322 -10.6287 -10.6185 -10.5848 -10.5571 -10.5203 -10.4851 -10.4336
   -10.3893 -10.3380 -10.2988 -10.2621  -0.0084   0.0326   0.0762   0.0884
     0.0916   0.1309   0.1322   0.1527   0.3920   0.4099   0.5165   0.5439
    30.7331  30.7848  30.8683  31.1387  31.2476  31.6269  31.6612  31.7318
    32.0793  32.1864  32.4007  32.5282  32.5681  32.6552  32.8680  33.2023
    33.2837  33.5710  33.5946  33.8680  33.9891  34.1629  34.2527  34.3873
    34.4951  34.5604  34.8852  34.9691  35.0985  35.4104  35.4715  35.8493
    35.9478  36.0015  36.4076  36.7497  36.8463  36.9082  37.0870  37.6826
    37.9465  38.2531  38.2591  38.5980  39.4799  39.9339  40.5194  40.7497
    40.7568  41.0787  41.2030  41.5116  41.6716  41.8821  42.3239  42.5880
    42.7067  42.8116  42.9399  43.2097  43.2109  43.8689  43.9626  44.2044
    46.2812  47.6334  51.3619  51.8320  52.4529  53.0297  54.0448  54.3165
    54.5446  55.2715  55.2896  55.7196  56.2481  56.4356  57.0953  57.2269
    57.3901  57.4781  57.8441  57.8513  57.9903  58.2955  58.4128  58.7135
    58.8850  59.2887  59.3412  59.6495  59.7214  60.0696  60.1936  60.2791
    60.6044  60.8667  60.9897  61.3310  61.7898  62.1495  62.6408  62.8578
    62.9504  63.2288

          k = 0.0000 0.2533-0.2634 (  3666 PWs)   bands (ev):

   -48.4528 -48.4528 -48.4277 -48.4277 -48.3112 -48.3112 -48.2634 -48.2634
   -32.3442 -32.3442 -32.3236 -32.3236 -11.2917 -11.2917 -11.2011 -11.2011
   -11.1240 -11.1240 -10.9672 -10.9672 -10.9337 -10.9337 -10.8398 -10.8398
   -10.6554 -10.6554 -10.5957 -10.5957 -10.5587 -10.5587 -10.4687 -10.4687
   -10.3585 -10.3585 -10.2688 -10.2688   0.0125   0.0125   0.0921   0.0921
     0.1115   0.1115   0.1316   0.1316   0.3981   0.3981   0.5324   0.5324
    30.6526  30.6526  30.8632  30.8632  31.5023  31.5023  32.0064  32.0064
    32.0862  32.0862  32.5759  32.5759  32.6671  32.6671  33.2373  33.2373
    33.4321  33.4321  33.7711  33.7711  33.9534  33.9534  34.2055  34.2055
    34.3894  34.3894  34.9535  34.9535  35.1952  35.1952  35.6154  35.6154
    36.1407  36.1407  36.4096  36.4096  36.8415  36.8415  37.4671  37.4671
    38.0396  38.0396  38.0516  38.0516  39.6315  39.6315  40.7412  40.7412
    41.1014  41.1014  41.3247  41.3247  41.4641  41.4641  42.4141  42.4141
    42.8245  42.8245  43.2787  43.2787  43.5210  43.5210  43.8432  43.8432
    48.6590  48.6590  50.6761  50.6761  52.7611  52.7611  53.5432  53.5432
    54.6690  54.6690  55.8995  55.8995  55.9408  55.9408  56.8270  56.8270
    57.8678  57.8678  58.0759  58.0759  58.4200  58.4200  58.7122  58.7122
    58.9384  58.9384  59.7197  59.7197  59.7317  59.7318  60.5321  60.5321
    61.0294  61.0295  61.3912  61.3912  61.6395  61.6396  62.4781  62.4785
    62.8766  62.8768

          k =-0.5000 0.0000 0.0000 (  3722 PWs)   bands (ev):

   -48.4592 -48.4592 -48.4472 -48.4472 -48.3839 -48.3839 -48.2735 -48.2735
   -32.3598 -32.3598 -32.3503 -32.3503 -11.5204 -11.5204 -11.2675 -11.2675
   -11.2477 -11.2477 -11.0781 -11.0781 -10.9850 -10.9850 -10.7768 -10.7768
   -10.6901 -10.6901 -10.6416 -10.6416 -10.4301 -10.4301 -10.3906 -10.3906
   -10.3198 -10.3198 -10.1831 -10.1831  -0.0461  -0.0461   0.0522   0.0522
     0.2081   0.2081   0.2330   0.2330   0.5033   0.5033   0.5125   0.5125
    30.8187  30.8187  31.2088  31.2088  31.8557  31.8557  31.9117  31.9117
    32.1293  32.1293  32.4517  32.4517  32.7814  32.7814  32.9539  32.9539
    33.0897  33.0897  33.1674  33.1674  33.5620  33.5620  33.5782  33.5782
    34.2345  34.2345  34.7179  34.7179  34.9288  34.9288  35.4040  35.4040
    35.5154  35.5154  36.7011  36.7011  37.8992  37.8992  37.9835  37.9835
    38.2923  38.2923  39.6888  39.6888  39.8825  39.8825  40.7382  40.7382
    41.1138  41.1138  41.5598  41.5598  41.6555  41.6555  42.7242  42.7242
    42.9635  42.9635  43.2382  43.2382  44.1196  44.1196  45.1992  45.1992
    45.4943  45.4943  46.7868  46.7868  51.4303  51.4303  53.0343  53.0343
    53.9690  53.9690  54.6538  54.6538  55.3444  55.3444  56.7309  56.7309
    57.2649  57.2649  57.7482  57.7482  58.2346  58.2346  58.9730  58.9730
    59.2649  59.2649  59.9329  59.9329  60.9410  60.9411  61.0466  61.0466
    62.0970  62.0971  62.4054  62.4055  62.8159  62.8161  62.9192  62.9193
    63.1193  63.1193

          k =-0.5000 0.0000 0.1317 (  3710 PWs)   bands (ev):

   -48.4601 -48.4601 -48.4344 -48.4344 -48.3736 -48.3736 -48.2702 -48.2702
   -32.3579 -32.3579 -32.3463 -32.3463 -11.5069 -11.5069 -11.3537 -11.3537
   -11.1448 -11.1448 -11.1089 -11.1089 -10.9074 -10.9074 -10.7910 -10.7910
   -10.7745 -10.7745 -10.5906 -10.5906 -10.4387 -10.4387 -10.3636 -10.3636
   -10.3177 -10.3177 -10.1852 -10.1852  -0.0442  -0.0442   0.0666   0.0666
     0.2085   0.2085   0.2276   0.2276   0.5047   0.5047   0.5122   0.5122
    30.9046  30.9046  31.1388  31.1388  31.6738  31.6738  31.9089  31.9089
    32.2948  32.2948  32.5615  32.5615  32.6643  32.6643  32.9234  32.9234
    33.1975  33.1975  33.2897  33.2897  33.5795  33.5795  33.8510  33.8510
    34.1681  34.1681  34.4179  34.4179  35.1731  35.1731  35.2250  35.2250
    35.7302  35.7302  36.6721  36.6721  37.4541  37.4541  37.8455  37.8455
    37.9267  37.9267  39.3723  39.3723  40.3051  40.3051  40.7981  40.7981
    41.1984  41.1984  41.4836  41.4836  41.9576  41.9576  42.4438  42.4438
    43.0435  43.0435  43.7449  43.7449  44.0239  44.0239  44.5211  44.5211
    46.1117  46.1117  47.4230  47.4230  50.2641  50.2641  53.2516  53.2516
    54.7128  54.7128  55.0623  55.0623  55.4253  55.4253  56.4509  56.4509
    56.9534  56.9534  57.4280  57.4280  58.2040  58.2040  58.6989  58.6989
    59.2787  59.2787  60.3234  60.3235  60.5406  60.5406  61.0048  61.0048
    61.8253  61.8254  62.2068  62.2068  62.5758  62.5758  63.1877  63.1877
    64.0810  64.0842

          k =-0.5000 0.0000-0.2634 (  3680 PWs)   bands (ev):

   -48.4357 -48.4357 -48.4271 -48.4271 -48.3483 -48.3483 -48.2688 -48.2688
   -32.3486 -32.3486 -32.3426 -32.3426 -11.4983 -11.4983 -11.3702 -11.3702
   -11.1784 -11.1784 -11.0001 -11.0001 -10.8544 -10.8544 -10.8257 -10.8257
   -10.8096 -10.8096 -10.5825 -10.5825 -10.4396 -10.4396 -10.3357 -10.3357
   -10.2975 -10.2975 -10.1752 -10.1752  -0.0370  -0.0370   0.0810   0.0810
     0.2114   0.2114   0.2295   0.2295   0.5101   0.5101   0.5113   0.5113
    30.8508  30.8508  31.3943  31.3943  31.6085  31.6085  31.6221  31.6221
    32.2575  32.2575  32.6422  32.6422  32.8620  32.8620  33.1620  33.1620
    33.2074  33.2074  33.2719  33.2719  33.5065  33.5065  33.7614  33.7614
    34.4806  34.4806  34.6457  34.6457  34.7193  34.7193  35.0262  35.0262
    36.1967  36.1967  36.7067  36.7067  36.9244  36.9244  37.5111  37.5111
    37.8297  37.8297  39.0985  39.0985  40.6708  40.6708  40.7952  40.7952
    41.1180  41.1180  41.8456  41.8456  41.8672  41.8672  42.1893  42.1893
    43.4563  43.4563  43.7765  43.7765  44.1104  44.1104  44.1275  44.1275
    46.6557  46.6557  48.5089  48.5089  48.6995  48.6995  53.5867  53.5867
    54.7864  54.7864  55.3510  55.3510  55.6347  55.6347  56.3512  56.3512
    57.0793  57.0793  57.2244  57.2244  57.7624  57.7624  58.7665  58.7665
    59.1590  59.1590  59.9220  59.9220  60.5088  60.5089  61.5230  61.5231
    61.8359  61.8359  62.1487  62.1488  62.5372  62.5373  63.1602  63.1603
    63.5864  63.5864

          k =-0.5000 0.2533 0.0000 (  3686 PWs)   bands (ev):

   -48.4389 -48.4389 -48.4346 -48.4346 -48.3379 -48.3379 -48.2872 -48.2872
   -32.3539 -32.3539 -32.3450 -32.3450 -11.3567 -11.3567 -11.2439 -11.2439
   -11.2095 -11.2095 -11.0251 -11.0251 -10.8865 -10.8865 -10.7973 -10.7973
   -10.7596 -10.7596 -10.6332 -10.6332 -10.4251 -10.4251 -10.4243 -10.4243
   -10.3270 -10.3270 -10.2855 -10.2855  -0.0248  -0.0248   0.0265   0.0265
     0.2141   0.2141   0.2227   0.2227   0.4740   0.4740   0.4772   0.4772
    31.3929  31.3929  31.5736  31.5736  31.9178  31.9178  32.0304  32.0304
    32.4289  32.4289  32.4639  32.4639  32.9890  32.9890  33.1562  33.1562
    33.3847  33.3847  33.6031  33.6031  33.7129  33.7129  33.8380  33.8380
    34.2567  34.2567  34.3022  34.3022  35.0257  35.0257  35.3907  35.3907
    35.6846  35.6846  36.2390  36.2390  36.9945  36.9945  37.5972  37.5972
    38.1070  38.1070  39.7086  39.7086  40.0108  40.0108  40.0505  40.0505
    40.9361  40.9361  41.3096  41.3096  41.6619  41.6619  42.3292  42.3292
    42.6325  42.6325  42.6746  42.6746  42.9334  42.9334  44.6876  44.6876
    47.1023  47.1023  47.5060  47.5060  49.4023  49.4023  50.2825  50.2825
    55.0867  55.0867  56.0051  56.0051  57.2163  57.2163  57.7976  57.7976
    58.0221  58.0221  58.5063  58.5063  58.7963  58.7963  59.3731  59.3731
    59.5517  59.5518  59.8237  59.8238  60.8589  60.8589  61.3497  61.3497
    61.5999  61.6000  62.2118  62.2118  62.7137  62.7137  63.2939  63.2940
    63.8271  63.8275

          k =-0.5000 0.2533 0.1317 (  3692 PWs)   bands (ev):

   -48.4453 -48.4453 -48.4375 -48.4375 -48.3402 -48.3402 -48.2867 -48.2867
   -32.3530 -32.3530 -32.3484 -32.3484 -11.3754 -11.3754 -11.2369 -11.2369
   -11.1734 -11.1734 -11.0716 -11.0716 -10.9100 -10.9100 -10.8301 -10.8301
   -10.6995 -10.6995 -10.5852 -10.5852 -10.4502 -10.4502 -10.4281 -10.4281
   -10.3382 -10.3382 -10.2935 -10.2935  -0.0194  -0.0194   0.0320   0.0320
     0.2076   0.2076   0.2164   0.2164   0.4649   0.4649   0.4771   0.4771
    31.3075  31.3075  31.6017  31.6017  31.8837  31.8837  32.2055  32.2055
    32.3576  32.3576  32.5937  32.5937  32.8900  32.8900  33.2034  33.2034
    33.3355  33.3355  33.6013  33.6013  33.7216  33.7216  34.0537  34.0537
    34.1005  34.1005  34.5383  34.5383  35.1186  35.1186  35.2386  35.2386
    35.8394  35.8394  36.1312  36.1312  36.8524  36.8524  37.4319  37.4319
    38.0610  38.0610  38.8565  38.8565  40.0981  40.0981  40.5785  40.5785
    40.8983  40.8983  41.1733  41.1733  41.5258  41.5258  42.2507  42.2507
    42.5419  42.5419  42.9694  42.9694  43.2981  43.2981  44.8497  44.8497
    46.5782  46.5782  48.3736  48.3736  48.5214  48.5214  51.6122  51.6122
    55.1257  55.1257  55.5352  55.5352  57.0007  57.0007  57.2551  57.2551
    57.8111  57.8111  58.3440  58.3440  59.0597  59.0597  59.4316  59.4316
    59.6966  59.6966  60.1266  60.1267  60.7125  60.7126  60.8971  60.8971
    61.6145  61.6146  62.1085  62.1085  62.4753  62.4754  63.1873  63.1875
    63.7394  63.7395

          k =-0.5000 0.2533-0.2634 (  3704 PWs)   bands (ev):

   -48.4499 -48.4499 -48.4423 -48.4423 -48.3504 -48.3504 -48.2917 -48.2917
   -32.3563 -32.3563 -32.3506 -32.3506 -11.3943 -11.3943 -11.1988 -11.1989
   -11.1722 -11.1722 -11.1173 -11.1173 -10.9619 -10.9619 -10.8366 -10.8366
   -10.6483 -10.6483 -10.5355 -10.5355 -10.4846 -10.4846 -10.4573 -10.4573
   -10.3278 -10.3278 -10.3000 -10.3000  -0.0214  -0.0214   0.0368   0.0368
     0.2010   0.2010   0.2114   0.2114   0.4615   0.4615   0.4691   0.4691
    31.1723  31.1723  31.7900  31.7900  31.9260  31.9260  32.1582  32.1582
    32.3419  32.3419  32.6172  32.6172  32.9058  32.9058  33.2333  33.2333
    33.3811  33.3811  33.5007  33.5007  33.6784  33.6784  34.1618  34.1618
    34.3173  34.3173  34.7570  34.7570  34.8769  34.8769  35.2356  35.2356
    35.7265  35.7265  36.4454  36.4454  36.5736  36.5736  37.2816  37.2816
    38.0069  38.0069  38.3764  38.3764  40.3463  40.3463  40.3652  40.3652
    40.9029  40.9029  41.0005  41.0005  41.6009  41.6009  42.0917  42.0917
    42.5965  42.5965  43.0438  43.0438  44.0829  44.0829  44.5958  44.5958
    46.8972  46.8972  47.3210  47.3210  49.2752  49.2752  53.0994  53.0994
    54.2047  54.2047  55.4945  55.4945  56.5715  56.5715  57.0465  57.0465
    57.0967  57.0967  58.5565  58.5565  59.2356  59.2356  59.5559  59.5559
    59.6399  59.6400  60.4345  60.4345  60.5598  60.5598  61.0249  61.0250
    61.4198  61.4199  62.0074  62.0074  62.7030  62.7031  62.9009  62.9009
    63.6526  63.6528

     the Fermi energy is    57.1315 ev

!    total energy              =   -3655.51480569 Ry
     Harris-Foulkes estimate   =   -3655.51485048 Ry
     estimated scf accuracy    <       0.00005342 Ry

     The total energy is the sum of the following terms:

     one-electron contribution =     144.78034258 Ry
     hartree contribution      =     326.61164912 Ry
     xc contribution           =    -335.93813744 Ry
     ewald contribution        =   -3790.46730831 Ry
     smearing contrib. (-TS)   =      -0.50135164 Ry

     convergence has been achieved in   9 iterations

     Forces acting on atoms (Ry/au):

     atom    1 type  1   force =     0.00000000   -0.08592009   -0.08952615
     atom    2 type  1   force =     0.00000000    0.08592009    0.08952615
     atom    3 type  1   force =     0.00000000   -0.08592009    0.08952615
     atom    4 type  1   force =     0.00000000    0.08592009   -0.08952615
     atom    5 type  1   force =     0.00000000    0.10590642   -0.16268105
     atom    6 type  1   force =     0.00000000   -0.10590642    0.16268105
     atom    7 type  1   force =     0.00000000    0.10590642    0.16268105
     atom    8 type  1   force =     0.00000000   -0.10590642   -0.16268105
     atom    9 type  2   force =     0.00000000   -0.20780205    0.03388228
     atom   10 type  2   force =     0.00000000    0.20780205   -0.03388228
     atom   11 type  2   force =     0.00000000   -0.20780205   -0.03388228
     atom   12 type  2   force =     0.00000000    0.20780205    0.03388228

     Total force =     0.624206     Total SCF correction =     0.000000


     entering subroutine stress ...

          total   stress  (Ry/bohr**3)                   (kbar)     P= 7726.98
   0.05572290   0.00000000   0.00000000       8197.12      0.00      0.00
   0.00000000   0.05012146   0.00000000          0.00   7373.12      0.00
   0.00000000   0.00000000   0.05173641          0.00      0.00   7610.69


     BFGS Geometry Optimization

     number of scf cycles    =   1
     number of bfgs steps    =   0

     enthalpy new            =   -3655.5148056895 Ry

     new trust radius        =       0.5000000000 bohr
     new conv_thr            =       0.0001000000 Ry

     new unit-cell volume =   1086.96912 a.u.^3 (   161.07220 Ang^3 )

CELL_PARAMETERS (alat=  7.01510508)
   1.085136619   0.000000000   0.000000000
   0.000000000   1.416737781   0.000000000
   0.000000000   0.000000000   2.048051009

ATOMIC_POSITIONS (crystal)
Co       0.750000000   0.825832200   0.435325080
Co       0.250000000   0.174167800   0.564674920
Co       0.750000000   0.325832200   0.064674920
Co       0.250000000   0.674167800   0.935325080
Co       0.250000000   0.537787111   0.281598303
Co       0.750000000   0.462212889   0.718401697
Co       0.250000000   0.037787111   0.218401697
Co       0.750000000   0.962212889   0.781598303
Si       0.250000000   0.201478329   0.893755518
Si       0.750000000   0.798521671   0.106244482
Si       0.250000000   0.701478329   0.606244482
Si       0.750000000   0.298521671   0.393755518



     Writing output data file Prototype-La-oP12-Co2Si.save
     NEW-OLD atomic charge density approx. for the potential
     NEW k-points:
        k(    1) = (   0.0000000   0.0000000   0.0000000), wk =   0.0833333
        k(    2) = (   0.0000000   0.0000000   0.1220673), wk =   0.1666667
        k(    3) = (   0.0000000   0.0000000  -0.2441345), wk =   0.0833333
        k(    4) = (   0.0000000   0.2352823   0.0000000), wk =   0.1666667
        k(    5) = (   0.0000000   0.2352823   0.1220673), wk =   0.3333333
        k(    6) = (   0.0000000   0.2352823  -0.2441345), wk =   0.1666667
        k(    7) = (  -0.4607715   0.0000000   0.0000000), wk =   0.0833333
        k(    8) = (  -0.4607715   0.0000000   0.1220673), wk =   0.1666667
        k(    9) = (  -0.4607715   0.0000000  -0.2441345), wk =   0.0833333
        k(   10) = (  -0.4607715   0.2352823   0.0000000), wk =   0.1666667
        k(   11) = (  -0.4607715   0.2352823   0.1220673), wk =   0.3333333
        k(   12) = (  -0.4607715   0.2352823  -0.2441345), wk =   0.1666667

     total cpu time spent up to now is      192.4 secs

     Self-consistent Calculation

     iteration #  1     ecut=    40.00 Ry     beta=0.70
     CG style diagonalization
     c_bands:  2 eigenvalues not converged
     c_bands:  1 eigenvalues not converged
     ethr =  1.00E-06,  avg # of iterations = 22.6

     total cpu time spent up to now is      276.2 secs

     total energy              =   -3649.22077463 Ry
     Harris-Foulkes estimate   =   -3683.55433206 Ry
     estimated scf accuracy    <      43.47304406 Ry

     iteration #  2     ecut=    40.00 Ry     beta=0.70
     CG style diagonalization
     ethr =  1.00E-02,  avg # of iterations =  4.0

     total cpu time spent up to now is      290.8 secs

     total energy              =   -3661.70345435 Ry
     Harris-Foulkes estimate   =   -3665.23280455 Ry
     estimated scf accuracy    <       5.16849572 Ry

     iteration #  3     ecut=    40.00 Ry     beta=0.70
     CG style diagonalization
     ethr =  2.02E-03,  avg # of iterations =  3.7

     total cpu time spent up to now is      303.8 secs

     total energy              =   -3662.98451140 Ry
     Harris-Foulkes estimate   =   -3663.29202111 Ry
     estimated scf accuracy    <       0.63717947 Ry

     iteration #  4     ecut=    40.00 Ry     beta=0.70
     CG style diagonalization
     ethr =  2.49E-04,  avg # of iterations =  3.6

     total cpu time spent up to now is      317.3 secs

     total energy              =   -3663.13386601 Ry
     Harris-Foulkes estimate   =   -3663.14341879 Ry
     estimated scf accuracy    <       0.01749325 Ry

     iteration #  5     ecut=    40.00 Ry     beta=0.70
     CG style diagonalization
     c_bands:  1 eigenvalues not converged
     c_bands:  2 eigenvalues not converged
     ethr =  6.83E-06,  avg # of iterations =  4.4

     total cpu time spent up to now is      333.3 secs

     total energy              =   -3663.13986744 Ry
     Harris-Foulkes estimate   =   -3663.14128188 Ry
     estimated scf accuracy    <       0.00262437 Ry

     iteration #  6     ecut=    40.00 Ry     beta=0.70
     CG style diagonalization
     c_bands:  2 eigenvalues not converged
     c_bands:  2 eigenvalues not converged
     ethr =  1.03E-06,  avg # of iterations =  3.7

     total cpu time spent up to now is      347.0 secs

     total energy              =   -3663.14037705 Ry
     Harris-Foulkes estimate   =   -3663.14044169 Ry
     estimated scf accuracy    <       0.00013437 Ry

     iteration #  7     ecut=    40.00 Ry     beta=0.70
     CG style diagonalization
     c_bands:  1 eigenvalues not converged
     ethr =  5.25E-08,  avg # of iterations =  3.9

     total cpu time spent up to now is      360.9 secs

     End of self-consistent calculation

          k = 0.0000 0.0000 0.0000 (  3675 PWs)   bands (ev):

   -58.4557 -58.4520 -58.4249 -58.3872 -58.3443 -58.2934 -58.2485 -58.2428
   -41.9240 -41.9122 -41.9093 -41.8950 -21.2269 -21.1631 -21.1512 -21.0942
   -21.0712 -21.0631 -21.0396 -21.0315 -21.0290 -20.9671 -20.9174 -20.9127
   -20.8738 -20.8572 -20.8048 -20.8044 -20.7901 -20.7583 -20.7451 -20.7410
   -20.7318 -20.6598 -20.6063 -20.5773  -9.3642  -9.3157  -9.3143  -9.3095
    -9.3078  -9.3072  -9.3021  -9.2918  -9.1119  -9.0821  -9.0770  -9.0246
    22.2535  22.4587  22.4733  22.4998  22.5135  22.7041  22.7973  22.8297
    23.0327  23.1356  23.2615  23.5152  23.6189  23.9045  23.9325  24.2202
    24.2425  24.3199  24.3566  24.4473  24.5749  24.6823  24.7045  24.7631
    24.8827  25.1075  25.2883  25.2981  25.3989  25.4234  25.5482  25.5553
    25.6143  25.8339  25.8656  26.1911  26.5669  26.7934  26.8107  26.8207
    27.0542  28.0387  28.2284  28.7234  29.7202  30.5390  30.5934  30.5964
    30.6845  30.9903  31.1158  31.6470  31.6568  31.6999  31.9075  31.9995
    32.1817  32.8184  32.8657  32.8796  32.9008  32.9484  32.9721  34.3904
    36.0406  36.8422  37.2430  37.5740  38.5947  39.5439  39.9955  42.6862
    42.8455  43.2223  43.4562  43.4948  43.7279  43.8957  45.0565  45.0862
    45.5589  45.6259  45.6501  45.7644  46.0157  46.8128  46.8999  46.9036
    47.5493  47.7144  47.7235  47.7514  48.0514  48.1513  48.4661  48.8162
    49.0009  49.1462  49.2792  50.1012  50.6061  50.9382  51.0111  51.7336
    51.9667  52.0166

          k = 0.0000 0.0000 0.1221 (  3675 PWs)   bands (ev):

   -58.4772 -58.4380 -58.4094 -58.4075 -58.3499 -58.3296 -58.2573 -58.1857
   -41.9302 -41.9100 -41.9087 -41.8932 -21.2172 -21.1589 -21.1470 -21.1143
   -21.0952 -21.0771 -21.0487 -21.0182 -20.9953 -20.9903 -20.9326 -20.9191
   -20.8740 -20.8706 -20.8081 -20.7804 -20.7631 -20.7453 -20.7386 -20.7299
   -20.7236 -20.6792 -20.6072 -20.5846  -9.3510  -9.3220  -9.3215  -9.3112
    -9.3107  -9.3007  -9.2935  -9.2893  -9.1110  -9.1019  -9.0607  -9.0359
    22.2888  22.3080  22.3779  22.3950  22.5662  22.6781  22.8352  22.8767
    23.2497  23.3317  23.3658  23.6342  23.8172  23.8616  23.9210  23.9807
    24.2217  24.3197  24.4928  24.5135  24.5794  24.6546  24.7093  24.7224
    24.8965  24.9893  25.0964  25.1165  25.2429  25.4454  25.4854  25.5145
    25.7106  25.8929  26.1158  26.2952  26.6206  26.6509  26.7215  26.8761
    27.0808  27.2070  28.3515  29.1055  29.6735  29.9154  30.6884  30.8905
    31.0295  31.0736  31.1244  31.5031  31.6921  31.7788  31.7979  31.9993
    32.0324  32.3996  32.5966  32.8154  32.8171  32.8576  34.2472  34.7403
    36.5394  36.9827  37.2132  37.2820  38.6808  39.4685  39.7722  40.9869
    42.3353  43.4509  43.5004  43.8715  44.5587  44.8886  44.9266  45.0272
    45.1496  45.4241  45.6880  45.7831  45.8294  46.4995  46.7636  47.2203
    47.2898  47.6424  47.9223  47.9966  48.0892  48.1352  48.3926  48.7263
    49.0660  49.4329  49.6529  49.7537  50.1504  50.8620  50.8972  51.3683
    51.4883  51.8430

          k = 0.0000 0.0000-0.2441 (  3690 PWs)   bands (ev):

   -58.4827 -58.4827 -58.4223 -58.4223 -58.3468 -58.3468 -58.2348 -58.2348
   -41.9297 -41.9297 -41.9074 -41.9074 -21.2012 -21.2012 -21.1139 -21.1139
   -21.1133 -21.1133 -21.0310 -21.0310 -20.9844 -20.9844 -20.9414 -20.9414
   -20.8729 -20.8729 -20.7968 -20.7968 -20.7620 -20.7620 -20.7331 -20.7331
   -20.7200 -20.7200 -20.6050 -20.6050  -9.3344  -9.3344  -9.3223  -9.3223
    -9.3009  -9.3009  -9.2993  -9.2993  -9.1199  -9.1199  -9.0549  -9.0549
    22.2720  22.2720  22.2788  22.2788  22.6173  22.6173  23.1187  23.1187
    23.2376  23.2376  23.6819  23.6819  23.7672  23.7672  24.0128  24.0128
    24.2859  24.2859  24.4093  24.4093  24.5315  24.5315  24.6449  24.6449
    25.1176  25.1176  25.1564  25.1564  25.3061  25.3061  25.3876  25.3876
    25.7774  25.7774  26.3151  26.3151  26.3956  26.3956  26.7672  26.7672
    27.0240  27.0240  28.8912  28.8912  29.5572  29.5572  30.9920  30.9920
    31.2682  31.2682  31.2829  31.2829  31.5833  31.5833  31.8034  31.8034
    32.0373  32.0373  32.6533  32.6533  32.8163  32.8163  35.5650  35.5650
    36.4481  36.4481  37.2692  37.2692  38.8549  38.8549  39.9414  39.9414
    42.9152  42.9152  43.9313  43.9313  44.4928  44.4928  44.9640  44.9640
    45.0781  45.0781  46.1122  46.1122  46.3487  46.3487  46.3887  46.3887
    47.8445  47.8446  47.9556  47.9556  48.2051  48.2051  48.9017  48.9017
    48.9297  48.9297  49.8433  49.8433  50.3146  50.3146  50.5906  50.5906
    52.1492  52.1492

          k = 0.0000 0.2353 0.0000 (  3664 PWs)   bands (ev):

   -58.4473 -58.4167 -58.4153 -58.4133 -58.3152 -58.2627 -58.2415 -58.2408
   -41.9236 -41.9234 -41.8922 -41.8723 -21.1584 -21.1224 -21.1065 -21.1035
   -21.0588 -21.0521 -21.0230 -21.0227 -21.0035 -20.9754 -20.9384 -20.9236
   -20.9091 -20.8428 -20.7958 -20.7831 -20.7722 -20.7583 -20.7434 -20.7273
   -20.6992 -20.6789 -20.6649 -20.6448  -9.3466  -9.3423  -9.3200  -9.3138
    -9.2980  -9.2979  -9.2956  -9.2890  -9.1169  -9.1074  -9.0543  -9.0441
    22.5624  22.5982  22.7353  22.8273  22.8380  22.9523  23.0303  23.0839
    23.1937  23.2945  23.3596  23.5605  23.7274  23.7772  23.9268  23.9638
    24.1181  24.1516  24.2963  24.4542  24.5198  24.6088  24.8113  24.8668
    25.0421  25.1141  25.1229  25.2796  25.3076  25.3790  25.6507  25.7417
    25.7740  25.9294  26.0733  26.2990  26.3684  26.3960  26.6437  26.9866
    27.1207  27.8018  28.4857  28.5850  29.8721  30.0607  30.3472  30.4942
    30.6487  30.8112  31.1124  31.2124  31.4075  31.7410  31.8088  31.9322
    31.9664  32.0574  32.2951  32.3599  32.4822  32.7826  32.8627  32.8850
    34.2637  34.7368  38.5850  40.3752  40.5906  41.2328  42.4282  42.6659
    42.7069  42.7928  42.9960  43.5668  43.5718  43.6658  43.9383  44.6580
    44.7382  44.9822  45.0389  45.4314  45.7615  45.8770  47.4248  47.6298
    47.8916  48.0934  48.5366  48.7936  48.8445  49.1649  49.2645  49.4808
    49.4822  49.7700  49.9809  50.2534  50.4193  50.4448  50.8580  51.2208
    51.2363  51.5568

          k = 0.0000 0.2353 0.1221 (  3669 PWs)   bands (ev):

   -58.4648 -58.4406 -58.3994 -58.3906 -58.3238 -58.3107 -58.2409 -58.2332
   -41.9197 -41.9173 -41.9028 -41.8883 -21.1712 -21.1343 -21.1170 -21.1030
   -21.0780 -21.0670 -21.0102 -21.0064 -20.9971 -20.9697 -20.9453 -20.9317
   -20.9072 -20.8437 -20.7956 -20.7794 -20.7710 -20.7708 -20.7409 -20.7174
   -20.7072 -20.6840 -20.6607 -20.6485  -9.3446  -9.3368  -9.3231  -9.3142
    -9.3063  -9.3001  -9.2919  -9.2909  -9.1207  -9.1130  -9.0621  -9.0447
    22.4985  22.5555  22.5565  22.7335  22.8279  23.0523  23.0673  23.1594
    23.3782  23.4608  23.5060  23.5178  23.7027  23.7508  23.8602  24.0242
    24.2045  24.2807  24.4349  24.4649  24.5168  24.6177  24.7928  24.8442
    24.8716  25.0158  25.1143  25.1969  25.2426  25.3208  25.5348  25.7533
    25.8269  25.9588  26.1737  26.3074  26.3372  26.4893  26.6871  26.9813
    27.0938  27.6418  27.9081  28.8278  29.6276  29.9400  30.4973  30.6075
    30.6837  30.9015  30.9805  31.0027  31.2649  31.4431  31.8167  31.9783
    32.0587  32.0761  32.3500  32.4803  32.4911  32.5949  32.9252  33.0513
    34.7538  36.0201  39.0552  39.4018  40.3227  40.7491  41.7979  41.9301
    42.1431  42.7857  42.8559  43.0367  43.5638  44.0704  44.8526  45.0718
    45.2373  45.4802  45.6276  45.8250  46.0730  46.2789  46.6372  47.5155
    47.5874  48.1302  48.3784  48.6053  48.6704  48.6753  49.2587  49.3740
    49.5476  49.8413  50.1060  50.1984  50.3794  50.6017  50.9590  51.0702
    51.1204  51.3026

          k = 0.0000 0.2353-0.2441 (  3666 PWs)   bands (ev):

   -58.4481 -58.4481 -58.3843 -58.3843 -58.3085 -58.3085 -58.2503 -58.2503
   -41.9141 -41.9141 -41.8975 -41.8975 -21.1569 -21.1569 -21.0952 -21.0952
   -21.0838 -21.0838 -21.0014 -21.0014 -20.9825 -20.9825 -20.9304 -20.9304
   -20.8747 -20.8747 -20.7820 -20.7820 -20.7699 -20.7699 -20.7368 -20.7368
   -20.7024 -20.7024 -20.6487 -20.6487  -9.3362  -9.3362  -9.3201  -9.3201
    -9.2998  -9.2998  -9.2946  -9.2946  -9.1157  -9.1157  -9.0535  -9.0535
    22.4366  22.4366  22.5804  22.5804  22.9600  22.9600  23.2681  23.2681
    23.3816  23.3816  23.6580  23.6580  23.7181  23.7181  24.0434  24.0434
    24.3366  24.3366  24.4717  24.4717  24.5087  24.5087  24.6804  24.6804
    24.9254  24.9254  25.1228  25.1228  25.2006  25.2006  25.6170  25.6170
    26.0798  26.0798  26.2236  26.2236  26.4721  26.4721  26.8103  26.8103
    27.0273  27.0273  28.3490  28.3490  29.6609  29.6609  30.7709  30.7709
    30.7757  30.7757  30.9605  30.9605  31.0729  31.0729  31.9097  31.9097
    32.2022  32.2022  32.3306  32.3306  32.7606  32.7606  32.7704  32.7704
    36.7367  36.7367  38.4574  38.4574  40.2826  40.2826  41.1596  41.1596
    42.5379  42.5379  43.3265  43.3265  43.3269  43.3269  45.2401  45.2401
    45.8987  45.8987  46.3396  46.3396  46.3477  46.3477  46.9030  46.9030
    47.5230  47.5230  47.8119  47.8119  49.1602  49.1602  49.2396  49.2396
    49.6680  49.6681  50.1053  50.1053  50.4381  50.4381  50.8976  50.8980
    51.3954  51.3954

          k =-0.4608 0.0000 0.0000 (  3722 PWs)   bands (ev):

   -58.4879 -58.4879 -58.4659 -58.4659 -58.3566 -58.3566 -58.3231 -58.3231
   -41.9410 -41.9410 -41.9409 -41.9409 -21.2337 -21.2337 -21.1611 -21.1611
   -21.1387 -21.1387 -21.0361 -21.0361 -21.0288 -21.0288 -20.9281 -20.9281
   -20.8916 -20.8916 -20.8182 -20.8182 -20.7475 -20.7475 -20.7386 -20.7386
   -20.6910 -20.6910 -20.6073 -20.6073  -9.3812  -9.3812  -9.3463  -9.3463
    -9.3020  -9.3020  -9.2831  -9.2831  -9.0919  -9.0919  -9.0723  -9.0723
    22.4852  22.4852  22.7673  22.7673  23.1032  23.1032  23.2896  23.2896
    23.4337  23.4337  23.6639  23.6639  23.8583  23.8583  23.9587  23.9587
    23.9649  23.9649  24.1894  24.1894  24.2158  24.2158  24.3818  24.3818
    24.6575  24.6575  24.9914  24.9914  25.2083  25.2083  25.4863  25.4863
    25.5094  25.5094  26.2438  26.2438  26.9288  26.9288  27.0203  27.0203
    28.1763  28.1763  29.6995  29.6995  29.8290  29.8290  30.8078  30.8078
    30.9538  30.9538  31.2643  31.2643  31.5307  31.5307  31.7667  31.7667
    32.2757  32.2757  32.3655  32.3655  32.9748  32.9748  33.9078  33.9078
    34.0711  34.0711  35.5414  35.5414  39.0836  39.0836  41.0493  41.0493
    41.2621  41.2621  42.0761  42.0761  42.4874  42.4874  44.4385  44.4385
    45.4657  45.4657  46.8599  46.8599  47.5441  47.5441  47.6297  47.6297
    47.7319  47.7319  48.7231  48.7231  48.8720  48.8720  50.1890  50.1890
    50.4219  50.4219  50.5693  50.5693  51.4096  51.4097  51.6733  51.6734
    51.8520  51.8520

          k =-0.4608 0.0000 0.1221 (  3710 PWs)   bands (ev):

   -58.4828 -58.4828 -58.4419 -58.4419 -58.3563 -58.3563 -58.2991 -58.2991
   -41.9363 -41.9363 -41.9310 -41.9310 -21.2301 -21.2301 -21.1713 -21.1713
   -21.0887 -21.0887 -21.0701 -21.0701 -20.9927 -20.9927 -20.9350 -20.9350
   -20.9028 -20.9028 -20.8049 -20.8049 -20.7533 -20.7533 -20.7243 -20.7243
   -20.6859 -20.6859 -20.6100 -20.6100  -9.3753  -9.3753  -9.3384  -9.3384
    -9.2965  -9.2965  -9.2813  -9.2813  -9.0895  -9.0895  -9.0731  -9.0731
    22.5267  22.5267  22.7629  22.7629  23.0035  23.0035  23.3098  23.3098
    23.4661  23.4661  23.6692  23.6692  23.7665  23.7665  23.9724  23.9724
    24.0640  24.0640  24.2228  24.2228  24.2625  24.2625  24.4800  24.4800
    24.7075  24.7075  24.9096  24.9096  25.2641  25.2641  25.3687  25.3687
    25.6335  25.6335  26.2170  26.2170  26.7794  26.7794  26.9857  26.9857
    28.0280  28.0280  29.3126  29.3126  29.9834  29.9834  30.8372  30.8372
    31.2580  31.2580  31.2994  31.2994  31.3709  31.3709  31.7432  31.7432
    32.1972  32.1972  32.6867  32.6867  32.9054  32.9054  33.3248  33.3248
    34.8503  34.8503  35.9784  35.9784  38.2974  38.2974  40.8976  40.8976
    41.6601  41.6601  42.3876  42.3876  42.5063  42.5063  43.6711  43.6711
    46.3206  46.3206  46.5761  46.5761  47.1919  47.1919  47.3283  47.3283
    47.9879  47.9879  48.3802  48.3803  49.2523  49.2523  50.0931  50.0931
    50.2458  50.2458  50.7489  50.7489  51.0680  51.0680  51.8781  51.8782
    52.5607  52.5604

          k =-0.4608 0.0000-0.2441 (  3680 PWs)   bands (ev):

   -58.4414 -58.4414 -58.4228 -58.4228 -58.3089 -58.3089 -58.2828 -58.2828
   -41.9207 -41.9207 -41.9122 -41.9122 -21.2285 -21.2285 -21.1582 -21.1582
   -21.0812 -21.0812 -21.0313 -21.0313 -20.9663 -20.9663 -20.9473 -20.9473
   -20.9084 -20.9084 -20.7877 -20.7877 -20.7631 -20.7631 -20.7079 -20.7079
   -20.6598 -20.6598 -20.5986 -20.5986  -9.3623  -9.3623  -9.3287  -9.3287
    -9.2884  -9.2884  -9.2687  -9.2687  -9.0798  -9.0798  -9.0727  -9.0727
    22.5249  22.5249  22.8741  22.8741  22.9581  22.9581  23.1364  23.1364
    23.5243  23.5243  23.5824  23.5824  23.9018  23.9018  24.0780  24.0780
    24.1157  24.1157  24.2052  24.2052  24.2325  24.2325  24.5397  24.5397
    24.8017  24.8017  24.9780  24.9780  25.1095  25.1095  25.2185  25.2185
    25.9485  25.9485  26.1880  26.1880  26.5255  26.5255  26.9605  26.9605
    27.8928  27.8928  29.0080  29.0080  30.2529  30.2529  30.9581  30.9581
    31.1262  31.1262  31.2907  31.2907  31.3097  31.3097  31.6947  31.6947
    32.3853  32.3853  32.8320  32.8320  32.9532  32.9532  32.9755  32.9755
    35.4062  35.4062  36.8255  36.8255  37.1809  37.1809  40.9417  40.9417
    41.5516  41.5516  41.8407  41.8407  43.1095  43.1095  44.4748  44.4748
    45.1228  45.1228  46.3797  46.3797  46.9613  46.9613  47.7442  47.7442
    48.2295  48.2295  48.8823  48.8823  49.1847  49.1847  49.6373  49.6373
    50.2147  50.2147  50.6926  50.6926  51.1164  51.1164  52.1923  52.1923
    52.3321  52.3321

          k =-0.4608 0.2353 0.0000 (  3686 PWs)   bands (ev):

   -58.4468 -58.4468 -58.4389 -58.4389 -58.3069 -58.3069 -58.3037 -58.3037
   -41.9276 -41.9276 -41.9174 -41.9174 -21.1728 -21.1728 -21.1353 -21.1353
   -21.1111 -21.1111 -21.0402 -21.0402 -20.9561 -20.9561 -20.9120 -20.9120
   -20.8941 -20.8941 -20.8251 -20.8251 -20.7577 -20.7577 -20.7316 -20.7316
   -20.6735 -20.6735 -20.6550 -20.6550  -9.3719  -9.3719  -9.3506  -9.3506
    -9.2832  -9.2832  -9.2807  -9.2807  -9.0822  -9.0822  -9.0725  -9.0725
    22.8487  22.8487  22.9521  22.9521  23.2889  23.2889  23.3362  23.3362
    23.6006  23.6006  23.6461  23.6461  23.9850  23.9850  24.0499  24.0499
    24.1685  24.1685  24.3323  24.3323  24.3790  24.3790  24.5297  24.5297
    24.7746  24.7746  24.7778  24.7778  25.1580  25.1580  25.3844  25.3844
    25.6220  25.6220  25.9531  25.9531  26.4503  26.4503  26.7510  26.7510
    28.4326  28.4326  29.5195  29.5195  29.9779  29.9779  30.2560  30.2560
    30.8471  30.8471  30.9795  30.9795  31.4752  31.4752  31.6911  31.6911
    32.0357  32.0357  32.1163  32.1163  32.2688  32.2688  33.4054  33.4054
    35.3263  35.3263  35.6021  35.6021  37.4063  37.4063  37.9602  37.9602
    43.2860  43.2860  44.2830  44.2830  44.9615  44.9615  45.9751  45.9751
    46.0574  46.0574  46.6919  46.6919  46.7994  46.7994  47.9514  47.9514
    48.0927  48.0927  48.7125  48.7125  49.1030  49.1031  49.5087  49.5087
    50.2573  50.2573  50.3714  50.3714  51.2754  51.2755  51.2838  51.2838
    52.2049  52.2049

          k =-0.4608 0.2353 0.1221 (  3692 PWs)   bands (ev):

   -58.4511 -58.4511 -58.4433 -58.4433 -58.3211 -58.3211 -58.3018 -58.3018
   -41.9355 -41.9355 -41.9155 -41.9155 -21.1805 -21.1805 -21.1205 -21.1205
   -21.1025 -21.1025 -21.0540 -21.0540 -20.9641 -20.9641 -20.9360 -20.9360
   -20.8771 -20.8771 -20.8110 -20.8110 -20.7518 -20.7518 -20.7440 -20.7440
   -20.6841 -20.6841 -20.6619 -20.6619  -9.3637  -9.3637  -9.3509  -9.3509
    -9.2897  -9.2897  -9.2820  -9.2820  -9.0932  -9.0932  -9.0725  -9.0725
    22.7977  22.7977  23.0052  23.0052  23.2410  23.2410  23.4561  23.4561
    23.5438  23.5438  23.6787  23.6787  23.8402  23.8402  24.0838  24.0838
    24.2011  24.2011  24.3142  24.3142  24.4162  24.4162  24.6454  24.6454
    24.7501  24.7501  24.9022  24.9022  25.2453  25.2453  25.2861  25.2861
    25.6598  25.6598  25.8964  25.8964  26.3482  26.3482  26.7275  26.7275
    28.3575  28.3575  28.9941  28.9941  30.0959  30.0959  30.5774  30.5774
    30.8271  30.8271  30.9796  30.9796  31.3364  31.3364  31.8132  31.8132
    31.9599  31.9599  32.1978  32.1978  32.3787  32.3787  33.3588  33.3588
    34.9693  34.9693  36.2841  36.2841  36.7092  36.7092  39.2813  39.2813
    42.8796  42.8796  43.2793  43.2793  44.4335  44.4335  45.2360  45.2360
    46.1758  46.1758  47.3151  47.3151  47.6246  47.6246  48.0583  48.0583
    48.4779  48.4779  48.7856  48.7856  49.1909  49.1909  49.6827  49.6827
    50.1533  50.1533  50.4333  50.4333  50.8717  50.8717  51.2907  51.2907
    51.7116  51.7116

          k =-0.4608 0.2353-0.2441 (  3704 PWs)   bands (ev):

   -58.4712 -58.4712 -58.4500 -58.4500 -58.3325 -58.3325 -58.3135 -58.3135
   -41.9456 -41.9456 -41.9197 -41.9197 -21.1894 -21.1894 -21.1044 -21.1044
   -21.0972 -21.0972 -21.0758 -21.0758 -20.9919 -20.9919 -20.9541 -20.9541
   -20.8647 -20.8647 -20.7928 -20.7928 -20.7692 -20.7692 -20.7528 -20.7528
   -20.6804 -20.6804 -20.6666 -20.6666  -9.3666  -9.3666  -9.3512  -9.3512
    -9.2950  -9.2950  -9.2834  -9.2834  -9.0962  -9.0962  -9.0833  -9.0833
    22.7308  22.7308  23.1296  23.1296  23.2638  23.2638  23.3779  23.3779
    23.5353  23.5353  23.6737  23.6737  23.8239  23.8239  24.1054  24.1054
    24.2359  24.2359  24.3061  24.3061  24.3591  24.3591  24.7663  24.7663
    24.8518  24.8518  25.0139  25.0139  25.1190  25.1190  25.2972  25.2972
    25.6409  25.6409  26.0321  26.0321  26.1296  26.1296  26.6895  26.6895
    28.3512  28.3512  28.5839  28.5839  30.4023  30.4023  30.4070  30.4070
    30.8094  30.8094  30.9578  30.9578  31.5215  31.5215  31.6532  31.6532
    31.9300  31.9300  32.1947  32.1947  32.7342  32.7342  33.1812  33.1812
    35.2667  35.2667  35.5072  35.5072  37.4202  37.4202  40.5054  40.5054
    41.9228  41.9228  42.4611  42.4611  44.1262  44.1262  44.6870  44.6870
    46.3781  46.3781  47.6780  47.6780  48.2699  48.2699  48.3057  48.3057
    48.7004  48.7004  48.7680  48.7680  49.4200  49.4200  49.7933  49.7933
    50.0898  50.0898  50.1134  50.1134  50.7370  50.7370  51.2840  51.2840
    51.3103  51.3103

     the Fermi energy is    45.1838 ev

!    total energy              =   -3663.14040913 Ry
     Harris-Foulkes estimate   =   -3663.14042360 Ry
     estimated scf accuracy    <       0.00001858 Ry

     The total energy is the sum of the following terms:

     one-electron contribution =    -247.26929097 Ry
     hartree contribution      =     422.29968629 Ry
     xc contribution           =    -328.37959701 Ry
     ewald contribution        =   -3509.41909618 Ry
     smearing contrib. (-TS)   =      -0.37211126 Ry

     convergence has been achieved in   7 iterations

     Forces acting on atoms (Ry/au):

     atom    1 type  1   force =     0.00000000   -0.03892920   -0.01455062
     atom    2 type  1   force =     0.00000000    0.03892920    0.01455062
     atom    3 type  1   force =     0.00000000   -0.03892920    0.01455062
     atom    4 type  1   force =     0.00000000    0.03892920   -0.01455062
     atom    5 type  1   force =     0.00000000    0.04310956   -0.06100880
     atom    6 type  1   force =     0.00000000   -0.04310956    0.06100880
     atom    7 type  1   force =     0.00000000    0.04310956    0.06100880
     atom    8 type  1   force =     0.00000000   -0.04310956   -0.06100880
     atom    9 type  2   force =     0.00000000   -0.09513425    0.05780484
     atom   10 type  2   force =     0.00000000    0.09513425   -0.05780484
     atom   11 type  2   force =     0.00000000   -0.09513425   -0.05780484
     atom   12 type  2   force =     0.00000000    0.09513425    0.05780484

     Total force =     0.280711     Total SCF correction =     0.000000


     entering subroutine stress ...

          total   stress  (Ry/bohr**3)                   (kbar)     P= 2732.58
   0.02060452   0.00000000   0.00000000       3031.03      0.00      0.00
   0.00000000   0.01720266   0.00000000          0.00   2530.60      0.00
   0.00000000   0.00000000   0.01792003          0.00      0.00   2636.13


     number of scf cycles    =   2
     number of bfgs steps    =   1

     enthalpy old            =   -3655.5148056895 Ry
     enthalpy new            =   -3663.1404091308 Ry

     CASE: enthalpy_new < enthalpy_old

     small trust_radius: resetting bfgs history

     new trust radius        =       3.3965736052 bohr
     new conv_thr            =       0.0000951343 Ry

     new unit-cell volume =   3410.25802 a.u.^3 (   505.34809 Ang^3 )

CELL_PARAMETERS (alat=  7.01510508)
   1.644104504   0.000000000   0.000000000
   0.000000000   2.026029165   0.000000000
   0.000000000   0.000000000   2.965579598

ATOMIC_POSITIONS (crystal)
Co       0.750000000   0.821915215   0.434312320
Co       0.250000000   0.178084785   0.565687680
Co       0.750000000   0.321915215   0.065687680
Co       0.250000000   0.678084785   0.934312320
Co       0.250000000   0.542124716   0.277351936
Co       0.750000000   0.457875284   0.722648064
Co       0.250000000   0.042124716   0.222648064
Co       0.750000000   0.957875284   0.777351936
Si       0.250000000   0.191906096   0.897778882
Si       0.750000000   0.808093904   0.102221118
Si       0.250000000   0.691906096   0.602221118
Si       0.750000000   0.308093904   0.397778882



     Writing output data file Prototype-La-oP12-Co2Si.save
     NEW-OLD atomic charge density approx. for the potential
     NEW k-points:
        k(    1) = (   0.0000000   0.0000000   0.0000000), wk =   0.0833333
        k(    2) = (   0.0000000   0.0000000   0.0843006), wk =   0.1666667
        k(    3) = (   0.0000000   0.0000000  -0.1686011), wk =   0.0833333
        k(    4) = (   0.0000000   0.1645254   0.0000000), wk =   0.1666667
        k(    5) = (   0.0000000   0.1645254   0.0843006), wk =   0.3333333
        k(    6) = (   0.0000000   0.1645254  -0.1686011), wk =   0.1666667
        k(    7) = (  -0.3041169   0.0000000   0.0000000), wk =   0.0833333
        k(    8) = (  -0.3041169   0.0000000   0.0843006), wk =   0.1666667
        k(    9) = (  -0.3041169   0.0000000  -0.1686011), wk =   0.0833333
        k(   10) = (  -0.3041169   0.1645254   0.0000000), wk =   0.1666667
        k(   11) = (  -0.3041169   0.1645254   0.0843006), wk =   0.3333333
        k(   12) = (  -0.3041169   0.1645254  -0.1686011), wk =   0.1666667

     total cpu time spent up to now is      367.0 secs

     Self-consistent Calculation

     iteration #  1     ecut=    40.00 Ry     beta=0.70
     CG style diagonalization
     c_bands:  1 eigenvalues not converged
     c_bands:  2 eigenvalues not converged
     c_bands:  2 eigenvalues not converged
     c_bands:  5 eigenvalues not converged
     c_bands:  1 eigenvalues not converged
     c_bands:  2 eigenvalues not converged
     c_bands:  4 eigenvalues not converged
     c_bands:  2 eigenvalues not converged
     c_bands:  2 eigenvalues not converged
     c_bands:  2 eigenvalues not converged
     ethr =  1.00E-06,  avg # of iterations = 32.5

     total cpu time spent up to now is      483.7 secs

     total energy              =   -3511.65023580 Ry
     Harris-Foulkes estimate   =   -3963.00024233 Ry
     estimated scf accuracy    <     566.78042125 Ry

     iteration #  2     ecut=    40.00 Ry     beta=0.70
     CG style diagonalization
     ethr =  1.00E-02,  avg # of iterations =  5.6

     total cpu time spent up to now is      505.5 secs

     total energy              =   -3617.70541311 Ry
     Harris-Foulkes estimate   =   -3630.56528134 Ry
     estimated scf accuracy    <      16.71147200 Ry

     iteration #  3     ecut=    40.00 Ry     beta=0.70
     CG style diagonalization
     ethr =  6.53E-03,  avg # of iterations =  4.0

     total cpu time spent up to now is      519.5 secs

     total energy              =   -3622.57044179 Ry
     Harris-Foulkes estimate   =   -3628.85824990 Ry
     estimated scf accuracy    <      13.83372267 Ry

     iteration #  4     ecut=    40.00 Ry     beta=0.70
     CG style diagonalization
     ethr =  5.40E-03,  avg # of iterations =  3.4

     total cpu time spent up to now is      532.0 secs

     total energy              =   -3624.89691278 Ry
     Harris-Foulkes estimate   =   -3625.15087350 Ry
     estimated scf accuracy    <       0.46045693 Ry

     iteration #  5     ecut=    40.00 Ry     beta=0.70
     CG style diagonalization
     ethr =  1.80E-04,  avg # of iterations =  3.9

     total cpu time spent up to now is      546.1 secs

     total energy              =   -3625.01759675 Ry
     Harris-Foulkes estimate   =   -3625.05245619 Ry
     estimated scf accuracy    <       0.05793661 Ry

     iteration #  6     ecut=    40.00 Ry     beta=0.70
     CG style diagonalization
     ethr =  2.26E-05,  avg # of iterations =  3.7

     total cpu time spent up to now is      559.5 secs

     total energy              =   -3625.02915828 Ry
     Harris-Foulkes estimate   =   -3625.04188489 Ry
     estimated scf accuracy    <       0.02424064 Ry

     iteration #  7     ecut=    40.00 Ry     beta=0.70
     CG style diagonalization
     c_bands:  2 eigenvalues not converged
     c_bands:  1 eigenvalues not converged
     ethr =  9.47E-06,  avg # of iterations =  3.4

     total cpu time spent up to now is      571.7 secs

     total energy              =   -3625.03362606 Ry
     Harris-Foulkes estimate   =   -3625.03448090 Ry
     estimated scf accuracy    <       0.00155151 Ry

     iteration #  8     ecut=    40.00 Ry     beta=0.70
     CG style diagonalization
     c_bands:  1 eigenvalues not converged
     ethr =  6.06E-07,  avg # of iterations =  3.7

     total cpu time spent up to now is      585.2 secs

     total energy              =   -3625.03397829 Ry
     Harris-Foulkes estimate   =   -3625.03403361 Ry
     estimated scf accuracy    <       0.00009835 Ry

     iteration #  9     ecut=    40.00 Ry     beta=0.70
     CG style diagonalization
     ethr =  3.84E-08,  avg # of iterations =  3.9

     total cpu time spent up to now is      598.7 secs

     End of self-consistent calculation

          k = 0.0000 0.0000 0.0000 (  3675 PWs)   bands (ev):

   -87.1775 -87.1298 -87.1201 -87.0625 -87.0250 -86.9734 -86.9232 -86.9194
   -66.1148 -66.1019 -66.0797 -66.0178 -57.1489 -57.1079 -57.1038 -57.1037
   -57.0709 -57.0579 -57.0366 -57.0336 -57.0127 -57.0033 -56.9901 -56.9695
   -56.9546 -56.9540 -56.9469 -56.9195 -56.7209 -56.6716 -56.6325 -56.6267
   -56.5322 -56.5171 -56.5094 -56.4658 -39.8683 -39.8523 -39.8513 -39.8464
   -39.8395 -39.8272 -39.8245 -39.8208 -39.6964 -39.6791 -39.6631 -39.6570
    -5.0345  -4.8808  -4.8776  -4.8058  -4.7957  -4.7574  -4.7550  -4.7480
    -4.7190  -4.6155  -4.6080  -4.5104  -4.5094  -4.4550  -4.4360  -4.4332
    -4.4264  -4.4012  -4.3248  -4.3030  -4.2726  -4.2124  -4.1732  -4.1158
    -4.0334  -4.0278  -4.0173  -4.0073  -3.9665  -3.9199  -3.9116  -3.9076
    -3.8468  -3.8458  -3.8284  -3.7582  -3.6802  -3.6113  -3.5791  -3.5439
     3.1077   3.3890   3.4413   3.5641   3.5707   3.5880   3.5950   3.6649
     3.6787   3.8134   3.8491   3.8545   3.8624   3.8769   3.9011   3.9919
     3.9988   4.0080   4.0088   4.0229   4.0559   4.3575   4.7130   5.7437
     5.8398   6.2537   6.3729   6.3750   8.1624   8.7657   8.8132   8.8784
     9.0277  10.0139  10.4052  10.4989  10.5239  10.5460  10.6310  11.1282
    11.4969  11.6356  11.7758  11.8400  12.1986  12.2107  12.4149  12.4886
    12.5791  13.1092  13.2504  13.5806  13.6849  13.7163  14.4781  14.5811
    14.8824  15.1656  15.8595  15.9276  16.1050  16.5685  16.8947  17.3704
    17.9422  18.3869

          k = 0.0000 0.0000 0.0843 (  3675 PWs)   bands (ev):

   -87.2103 -87.1706 -87.1431 -87.0496 -87.0199 -86.9686 -86.9036 -86.8889
   -66.1135 -66.1093 -66.0533 -66.0443 -57.1563 -57.1441 -57.1171 -57.1001
   -57.0896 -57.0573 -57.0475 -57.0213 -57.0147 -57.0141 -56.9889 -56.9626
   -56.9537 -56.9424 -56.9310 -56.9248 -56.7042 -56.6763 -56.6659 -56.5391
   -56.5341 -56.5134 -56.4705 -56.4536 -39.8672 -39.8571 -39.8564 -39.8494
   -39.8355 -39.8325 -39.8238 -39.8130 -39.6875 -39.6748 -39.6630 -39.6499
    -4.9951  -4.9877  -4.8694  -4.8607  -4.7923  -4.7764  -4.7383  -4.7187
    -4.7045  -4.6450  -4.6238  -4.5910  -4.5457  -4.4963  -4.4708  -4.4548
    -4.4331  -4.3894  -4.3338  -4.3312  -4.2532  -4.2395  -4.2024  -4.1363
    -4.1344  -4.0663  -3.9752  -3.9438  -3.9131  -3.9053  -3.9003  -3.8502
    -3.8253  -3.8096  -3.7847  -3.7501  -3.6171  -3.6024  -3.4712  -3.4455
     3.1840   3.4020   3.4121   3.5602   3.5741   3.6125   3.6212   3.6288
     3.6672   3.7740   3.8210   3.8402   3.8455   3.8822   3.9145   3.9435
     3.9871   4.0043   4.0072   4.0507   4.0894   4.1567   5.1557   5.7947
     5.8380   6.1451   6.2420   6.4082   8.1322   8.5992   8.8892   9.1310
     9.1716   9.7567   9.9860  10.2286  10.5924  10.7929  11.0112  11.2413
    11.4048  11.6333  11.6527  11.8320  12.1223  12.2180  12.4041  12.4202
    12.5055  12.8718  13.2166  13.4981  14.1493  14.4960  14.5342  14.6674
    14.8337  15.1481  15.4899  15.8334  16.2364  16.4947  16.6564  16.8043
    17.5005  17.5368

          k = 0.0000 0.0000-0.1686 (  3690 PWs)   bands (ev):

   -87.2121 -87.2121 -87.1242 -87.1242 -87.0620 -87.0620 -86.9156 -86.9156
   -66.1562 -66.1562 -66.0745 -66.0745 -57.1628 -57.1628 -57.1298 -57.1298
   -57.0911 -57.0911 -57.0726 -57.0726 -57.0488 -57.0488 -57.0005 -57.0005
   -56.9356 -56.9356 -56.9107 -56.9107 -56.6702 -56.6702 -56.6005 -56.6005
   -56.5008 -56.5008 -56.4527 -56.4527 -39.8664 -39.8664 -39.8566 -39.8566
   -39.8338 -39.8338 -39.8207 -39.8207 -39.6804 -39.6804 -39.6483 -39.6483
    -5.0437  -5.0437  -4.9760  -4.9760  -4.8590  -4.8590  -4.8192  -4.8192
    -4.7293  -4.7293  -4.6514  -4.6514  -4.6001  -4.6001  -4.4835  -4.4835
    -4.4225  -4.4225  -4.2870  -4.2870  -4.2026  -4.2026  -4.1665  -4.1665
    -4.1091  -4.1091  -3.9670  -3.9670  -3.9116  -3.9116  -3.8548  -3.8548
    -3.8229  -3.8229  -3.7345  -3.7345  -3.6898  -3.6898  -3.4580  -3.4580
     3.3614   3.3614   3.4162   3.4162   3.5693   3.5693   3.5742   3.5742
     3.6141   3.6141   3.8342   3.8342   3.9025   3.9025   3.9466   3.9466
     3.9680   3.9680   4.0343   4.0343   4.0804   4.0804   5.7151   5.7151
     5.8653   5.8653   6.2684   6.2684   8.2446   8.2446   9.2368   9.2368
     9.5610   9.5610   9.8757   9.8757  10.4432  10.4432  11.2656  11.2656
    11.5127  11.5127  11.8953  11.8953  12.2478  12.2478  12.4978  12.4978
    12.5342  12.5342  13.0435  13.0435  14.5525  14.5525  14.9829  14.9829
    15.0383  15.0383  15.5940  15.5940  16.2598  16.2599  16.6533  16.6533
    17.2869  17.2871

          k = 0.0000 0.1645 0.0000 (  3664 PWs)   bands (ev):

   -87.1731 -87.1250 -87.1249 -87.0777 -86.9543 -86.9457 -86.9199 -86.8629
   -66.1543 -66.0979 -66.0091 -65.9576 -57.1415 -57.0966 -57.0942 -57.0682
   -57.0601 -57.0423 -57.0346 -57.0267 -57.0148 -56.9943 -56.9811 -56.9803
   -56.9621 -56.9610 -56.9124 -56.8959 -56.6912 -56.6794 -56.6604 -56.5834
   -56.5670 -56.5138 -56.4354 -56.3958 -39.8622 -39.8612 -39.8523 -39.8423
   -39.8366 -39.8351 -39.8102 -39.8090 -39.6905 -39.6669 -39.6599 -39.6495
    -4.9186  -4.8678  -4.8615  -4.7892  -4.7885  -4.7486  -4.6905  -4.6870
    -4.6270  -4.6218  -4.5796  -4.5582  -4.5184  -4.4471  -4.4379  -4.4087
    -4.4074  -4.4009  -4.3685  -4.2861  -4.2621  -4.2501  -4.2299  -4.1278
    -4.0959  -4.0710  -3.9851  -3.9497  -3.9436  -3.8768  -3.8757  -3.8676
    -3.8308  -3.7962  -3.7268  -3.6850  -3.6282  -3.6024  -3.4093  -3.3967
     3.3433   3.3696   3.5419   3.5428   3.6111   3.6351   3.6466   3.6764
     3.6778   3.8054   3.8092   3.8751   3.9102   3.9408   3.9463   3.9558
     3.9589   4.0532   4.0557   4.0611   4.0934   4.4645   4.5475   4.8666
     5.6269   5.7491   6.5384   6.6045   8.3080   8.5504   9.1939   9.6919
    10.2131  10.2520  10.2857  10.3456  10.4646  10.5421  10.7061  10.8182
    10.8248  11.5880  11.6682  11.7463  12.0360  12.4693  12.7249  12.7791
    13.1213  13.3036  13.6895  13.7477  13.8687  14.1096  14.1359  14.1732
    14.8407  15.3244  15.7340  15.8654  15.9435  15.9646  16.2147  16.3638
    16.5277  16.8917

          k = 0.0000 0.1645 0.0843 (  3669 PWs)   bands (ev):

   -87.1982 -87.1276 -87.1111 -87.0735 -86.9916 -86.9736 -86.9134 -86.8905
   -66.1473 -66.0758 -66.0452 -66.0049 -57.1493 -57.1024 -57.1021 -57.0987
   -57.0749 -57.0564 -57.0508 -57.0458 -57.0278 -57.0094 -57.0013 -56.9750
   -56.9698 -56.9394 -56.9101 -56.9038 -56.6925 -56.6798 -56.6014 -56.5784
   -56.5340 -56.5032 -56.4383 -56.4088 -39.8620 -39.8598 -39.8535 -39.8493
   -39.8375 -39.8272 -39.8258 -39.8125 -39.6832 -39.6680 -39.6550 -39.6460
    -4.9447  -4.9283  -4.8879  -4.8452  -4.7692  -4.7526  -4.7415  -4.6913
    -4.6771  -4.6623  -4.6520  -4.5971  -4.5255  -4.4995  -4.4746  -4.4238
    -4.4203  -4.3751  -4.3432  -4.3104  -4.2472  -4.2087  -4.1748  -4.1486
    -4.1032  -4.0566  -4.0308  -4.0046  -3.9610  -3.9049  -3.8824  -3.8043
    -3.7651  -3.7578  -3.7217  -3.7056  -3.6176  -3.5928  -3.4464  -3.3521
     3.4037   3.4088   3.5065   3.5253   3.5556   3.6154   3.6319   3.6529
     3.6825   3.8211   3.8254   3.8747   3.8932   3.9405   3.9461   3.9638
     3.9826   4.0279   4.0331   4.0636   4.0892   4.2488   4.5711   4.9486
     5.6151   6.0773   6.4399   6.5639   8.3661   8.5630   9.3105   9.3221
     9.6934  10.1024  10.1169  10.3873  10.4442  10.4803  10.7547  11.1019
    11.4264  11.6066  11.9452  12.0402  12.2589  12.2695  12.5634  12.8293
    13.0180  13.2009  13.5062  13.5781  13.7137  13.8057  14.2141  14.7178
    15.2932  15.4125  15.4307  15.5411  15.8238  15.9030  16.2206  16.4569
    16.6503  17.5470

          k = 0.0000 0.1645-0.1686 (  3666 PWs)   bands (ev):

   -87.1088 -87.1088 -87.0781 -87.0781 -87.0134 -87.0134 -86.9105 -86.9105
   -66.1026 -66.1026 -66.0197 -66.0197 -57.1097 -57.1097 -57.0921 -57.0921
   -57.0784 -57.0784 -57.0427 -57.0427 -56.9983 -56.9983 -56.9850 -56.9850
   -56.9523 -56.9523 -56.9298 -56.9298 -56.6711 -56.6711 -56.5972 -56.5972
   -56.5168 -56.5168 -56.4404 -56.4404 -39.8622 -39.8622 -39.8483 -39.8483
   -39.8336 -39.8336 -39.8185 -39.8185 -39.6734 -39.6734 -39.6543 -39.6543
    -4.9070  -4.9070  -4.7999  -4.7999  -4.7721  -4.7721  -4.7024  -4.7024
    -4.6659  -4.6659  -4.6083  -4.6083  -4.5586  -4.5586  -4.4458  -4.4458
    -4.3152  -4.3152  -4.2605  -4.2605  -4.2177  -4.2177  -4.1660  -4.1660
    -4.0696  -4.0696  -3.9805  -3.9805  -3.9240  -3.9240  -3.8886  -3.8886
    -3.8300  -3.8300  -3.7560  -3.7560  -3.6054  -3.6054  -3.4147  -3.4147
     3.4586   3.4586   3.5475   3.5475   3.5703   3.5703   3.6311   3.6311
     3.7796   3.7796   3.8406   3.8406   3.8821   3.8821   3.9393   3.9393
     3.9706   3.9706   4.0517   4.0517   4.1402   4.1402   4.7365   4.7365
     6.0505   6.0505   6.4292   6.4292   8.5260   8.5260   9.1527   9.1527
     9.6333   9.6333  10.2084  10.2084  10.7052  10.7052  10.8695  10.8695
    11.6034  11.6034  12.2659  12.2659  12.3186  12.3186  12.7574  12.7574
    13.2758  13.2758  13.3241  13.3241  13.5573  13.5573  14.5123  14.5123
    15.0157  15.0157  15.4289  15.4290  16.1940  16.1941  16.3660  16.3662
    16.7660  16.7661

          k =-0.3041 0.0000 0.0000 (  3722 PWs)   bands (ev):

   -87.1860 -87.1860 -87.1837 -87.1837 -87.0933 -87.0933 -87.0625 -87.0625
   -66.2049 -66.2049 -66.1714 -66.1714 -57.1009 -57.1009 -57.0940 -57.0940
   -57.0904 -57.0904 -57.0651 -57.0651 -57.0513 -57.0513 -57.0472 -57.0472
   -57.0025 -57.0025 -56.9935 -56.9935 -56.7287 -56.7287 -56.7008 -56.7008
   -56.6592 -56.6592 -56.6579 -56.6579 -39.8572 -39.8572 -39.8565 -39.8565
   -39.8412 -39.8412 -39.8329 -39.8329 -39.7238 -39.7238 -39.7005 -39.7005
    -5.0140  -5.0140  -4.8906  -4.8906  -4.8521  -4.8521  -4.8082  -4.8082
    -4.8048  -4.8048  -4.7633  -4.7633  -4.6430  -4.6430  -4.6225  -4.6225
    -4.4359  -4.4359  -4.2831  -4.2831  -4.2314  -4.2314  -4.1710  -4.1710
    -4.1235  -4.1235  -4.1039  -4.1039  -4.0969  -4.0969  -4.0430  -4.0430
    -4.0200  -4.0200  -3.9803  -3.9803  -3.9735  -3.9735  -3.9321  -3.9321
     3.3566   3.3566   3.5220   3.5220   3.6029   3.6029   3.6227   3.6227
     3.7182   3.7182   3.7619   3.7619   3.8081   3.8081   3.8811   3.8811
     3.8907   3.8907   4.0085   4.0085   4.2106   4.2106   5.4466   5.4466
     5.4973   5.4973   6.3226   6.3226   8.2230   8.2230   8.5834   8.5834
     8.8896   8.8896   9.6784   9.6784   9.9787   9.9787  10.6779  10.6779
    10.9396  10.9396  12.5929  12.5929  12.6019  12.6019  13.6568  13.6568
    13.8670  13.8670  14.0846  14.0846  14.6475  14.6475  14.8593  14.8593
    15.8860  15.8861  16.2181  16.2182  16.6461  16.6461  16.7161  16.7161
    17.4603  17.4606

          k =-0.3041 0.0000 0.0843 (  3710 PWs)   bands (ev):

   -87.1653 -87.1653 -87.1560 -87.1560 -87.1058 -87.1058 -87.0091 -87.0091
   -66.1657 -66.1657 -66.1572 -66.1572 -57.1127 -57.1127 -57.0887 -57.0887
   -57.0765 -57.0765 -57.0543 -57.0543 -57.0431 -57.0431 -57.0193 -57.0193
   -57.0027 -57.0027 -56.9579 -56.9579 -56.7498 -56.7498 -56.6824 -56.6824
   -56.6418 -56.6418 -56.6021 -56.6021 -39.8595 -39.8595 -39.8539 -39.8539
   -39.8355 -39.8355 -39.8278 -39.8278 -39.7136 -39.7136 -39.6982 -39.6982
    -4.9645  -4.9645  -4.8915  -4.8915  -4.8285  -4.8285  -4.7795  -4.7795
    -4.7634  -4.7634  -4.6984  -4.6984  -4.6527  -4.6527  -4.6053  -4.6053
    -4.3954  -4.3954  -4.2193  -4.2193  -4.1840  -4.1840  -4.1578  -4.1578
    -4.1502  -4.1502  -4.0972  -4.0972  -4.0523  -4.0523  -4.0289  -4.0289
    -3.9773  -3.9773  -3.9408  -3.9408  -3.8985  -3.8985  -3.8918  -3.8918
     3.3949   3.3949   3.5429   3.5429   3.5911   3.5911   3.6050   3.6050
     3.7335   3.7335   3.7932   3.7932   3.8262   3.8262   3.9110   3.9110
     3.9300   3.9300   4.0103   4.0103   4.2334   4.2334   5.0721   5.0721
     5.9234   5.9234   6.3287   6.3287   8.2527   8.2527   8.4347   8.4347
     9.1760   9.1760   9.4751   9.4751   9.6501   9.6501  10.5751  10.5751
    11.6040  11.6040  12.0445  12.0445  12.6708  12.6708  13.7331  13.7331
    14.2034  14.2035  14.4109  14.4110  14.5003  14.5003  14.9690  14.9691
    15.8753  15.8753  16.0520  16.0520  16.4164  16.4164  16.6868  16.6868
    17.3710  17.3705

          k =-0.3041 0.0000-0.1686 (  3680 PWs)   bands (ev):

   -87.1400 -87.1400 -87.0772 -87.0772 -87.0048 -87.0048 -86.9805 -86.9805
   -66.1132 -66.1132 -66.0735 -66.0735 -57.1071 -57.1071 -57.0987 -57.0987
   -57.0624 -57.0624 -57.0481 -57.0481 -57.0039 -57.0039 -56.9645 -56.9645
   -56.9559 -56.9559 -56.9201 -56.9201 -56.7349 -56.7349 -56.6585 -56.6585
   -56.6015 -56.6015 -56.5369 -56.5369 -39.8582 -39.8582 -39.8540 -39.8540
   -39.8226 -39.8226 -39.8181 -39.8181 -39.7006 -39.7006 -39.6888 -39.6888
    -4.8815  -4.8815  -4.8186  -4.8186  -4.7269  -4.7269  -4.7158  -4.7158
    -4.6898  -4.6898  -4.6301  -4.6301  -4.6161  -4.6161  -4.5905  -4.5905
    -4.4190  -4.4190  -4.1715  -4.1715  -4.1272  -4.1272  -4.1197  -4.1197
    -4.0416  -4.0416  -4.0246  -4.0246  -3.9603  -3.9603  -3.9562  -3.9562
    -3.8579  -3.8579  -3.8520  -3.8520  -3.7760  -3.7760  -3.7697  -3.7697
     3.4119   3.4119   3.5582   3.5582   3.6158   3.6158   3.6657   3.6657
     3.7756   3.7756   3.8084   3.8084   3.8611   3.8611   3.9339   3.9339
     4.0100   4.0100   4.0367   4.0367   4.2658   4.2658   4.9162   4.9162
     6.1587   6.1587   6.3264   6.3264   8.1632   8.1632   8.7110   8.7110
     8.9356   8.9356   9.1098   9.1098   9.8981   9.8981  10.9272  10.9272
    11.0003  11.0003  12.2614  12.2614  13.0799  13.0799  13.4668  13.4668
    14.3430  14.3430  14.5425  14.5425  14.6281  14.6281  15.0031  15.0031
    15.7580  15.7580  16.1441  16.1441  16.5634  16.5634  16.6729  16.6729
    16.8423  16.8423

          k =-0.3041 0.1645 0.0000 (  3686 PWs)   bands (ev):

   -87.1023 -87.1023 -87.0953 -87.0953 -87.0464 -87.0464 -86.9860 -86.9860
   -66.1087 -66.1087 -66.1052 -66.1052 -57.0861 -57.0861 -57.0738 -57.0738
   -57.0471 -57.0471 -57.0329 -57.0329 -57.0218 -57.0218 -57.0152 -57.0152
   -56.9617 -56.9617 -56.9575 -56.9575 -56.7418 -56.7418 -56.6959 -56.6959
   -56.6753 -56.6753 -56.6146 -56.6146 -39.8545 -39.8545 -39.8526 -39.8526
   -39.8282 -39.8282 -39.8278 -39.8278 -39.7161 -39.7161 -39.7041 -39.7041
    -4.9001  -4.9001  -4.7568  -4.7568  -4.7253  -4.7253  -4.6890  -4.6890
    -4.6746  -4.6746  -4.6073  -4.6073  -4.6063  -4.6063  -4.5681  -4.5681
    -4.3130  -4.3130  -4.2039  -4.2039  -4.1976  -4.1976  -4.1542  -4.1542
    -4.1054  -4.1054  -4.0813  -4.0813  -4.0653  -4.0653  -4.0402  -4.0402
    -4.0120  -4.0120  -3.9354  -3.9354  -3.9048  -3.9048  -3.8755  -3.8755
     3.4645   3.4645   3.5872   3.5872   3.6409   3.6409   3.6648   3.6648
     3.7083   3.7083   3.7729   3.7729   3.8689   3.8689   3.9148   3.9148
     3.9414   3.9414   3.9972   3.9972   4.4607   4.4607   5.1442   5.1442
     5.6051   5.6051   5.8471   5.8471   7.7772   7.7772   7.8922   7.8922
     9.8168   9.8168  10.4893  10.4893  10.8666  10.8666  11.5338  11.5338
    11.7092  11.7092  11.9352  11.9352  12.0039  12.0039  13.2302  13.2302
    13.8709  13.8709  13.9879  13.9879  14.5614  14.5614  14.5617  14.5617
    15.3767  15.3767  15.8501  15.8501  16.0996  16.0996  16.4140  16.4140
    16.9894  16.9895

          k =-0.3041 0.1645 0.0843 (  3692 PWs)   bands (ev):

   -87.1168 -87.1168 -87.0932 -87.0932 -87.0478 -87.0478 -87.0291 -87.0291
   -66.1625 -66.1625 -66.0807 -66.0807 -57.1120 -57.1120 -57.0925 -57.0925
   -57.0696 -57.0696 -57.0372 -57.0372 -57.0228 -57.0228 -57.0014 -57.0014
   -56.9686 -56.9686 -56.9631 -56.9631 -56.7154 -56.7154 -56.6737 -56.6737
   -56.6499 -56.6499 -56.6037 -56.6037 -39.8635 -39.8635 -39.8524 -39.8524
   -39.8288 -39.8288 -39.8255 -39.8255 -39.7060 -39.7060 -39.6998 -39.6998
    -4.8779  -4.8779  -4.8228  -4.8228  -4.7742  -4.7742  -4.7384  -4.7384
    -4.6987  -4.6987  -4.6706  -4.6706  -4.6233  -4.6233  -4.5537  -4.5537
    -4.3298  -4.3298  -4.2350  -4.2350  -4.1938  -4.1938  -4.1496  -4.1496
    -4.1244  -4.1244  -4.0618  -4.0618  -4.0407  -4.0407  -3.9914  -3.9914
    -3.9834  -3.9834  -3.9100  -3.9100  -3.8757  -3.8757  -3.8643  -3.8643
     3.4558   3.4558   3.5775   3.5775   3.6116   3.6116   3.6452   3.6452
     3.7155   3.7155   3.7500   3.7500   3.8562   3.8562   3.9111   3.9111
     4.0043   4.0043   4.0137   4.0137   4.4750   4.4750   5.0352   5.0352
     5.6462   5.6462   5.8506   5.8506   7.8638   7.8638   8.1499   8.1499
     9.5360   9.5360   9.9839   9.9839  10.7508  10.7508  11.2056  11.2056
    11.8830  11.8830  12.3558  12.3558  12.8286  12.8286  13.4203  13.4203
    13.6775  13.6775  13.9904  13.9904  14.3003  14.3003  14.7032  14.7032
    15.2296  15.2296  15.9083  15.9083  15.9815  15.9815  16.2480  16.2480
    16.6942  16.6942

          k =-0.3041 0.1645-0.1686 (  3704 PWs)   bands (ev):

   -87.1532 -87.1532 -87.1208 -87.1208 -87.0585 -87.0585 -87.0570 -87.0570
   -66.1922 -66.1922 -66.1085 -66.1085 -57.1408 -57.1408 -57.1121 -57.1121
   -57.0804 -57.0804 -57.0672 -57.0672 -57.0153 -57.0153 -57.0065 -57.0065
   -56.9641 -56.9641 -56.9391 -56.9391 -56.7298 -56.7298 -56.6926 -56.6926
   -56.6513 -56.6513 -56.6098 -56.6098 -39.8675 -39.8675 -39.8591 -39.8591
   -39.8275 -39.8275 -39.8217 -39.8217 -39.7071 -39.7071 -39.7047 -39.7047
    -4.9177  -4.9177  -4.8548  -4.8548  -4.8255  -4.8255  -4.7495  -4.7495
    -4.7360  -4.7360  -4.7083  -4.7083  -4.7025  -4.7025  -4.5524  -4.5524
    -4.3369  -4.3369  -4.2949  -4.2949  -4.2172  -4.2172  -4.1890  -4.1890
    -4.1437  -4.1437  -4.0833  -4.0833  -4.0713  -4.0713  -4.0567  -4.0567
    -3.9814  -3.9814  -3.9108  -3.9108  -3.8502  -3.8502  -3.8317  -3.8317
     3.4702   3.4702   3.5447   3.5447   3.5995   3.5995   3.6191   3.6191
     3.7022   3.7022   3.7329   3.7329   3.8513   3.8513   3.8957   3.8957
     4.0054   4.0054   4.0199   4.0199   4.4857   4.4857   4.9331   4.9331
     5.6878   5.6878   5.8337   5.8337   8.1454   8.1454   8.3414   8.3414
     9.0182   9.0182   9.9609   9.9609  10.3160  10.3160  11.0508  11.0508
    12.4465  12.4465  12.5621  12.5621  13.2818  13.2818  13.3887  13.3887
    13.8349  13.8349  14.0890  14.0890  14.3017  14.3017  14.4298  14.4298
    14.9620  14.9620  15.6449  15.6449  16.0401  16.0401  16.1426  16.1426
    16.5943  16.5944

     the Fermi energy is    11.2793 ev

!    total energy              =   -3625.03400541 Ry
     Harris-Foulkes estimate   =   -3625.03402119 Ry
     estimated scf accuracy    <       0.00001904 Ry

     The total energy is the sum of the following terms:

     one-electron contribution =   -1839.72046908 Ry
     hartree contribution      =     917.83991870 Ry
     xc contribution           =    -303.92767886 Ry
     ewald contribution        =   -2398.67811079 Ry
     smearing contrib. (-TS)   =      -0.54766538 Ry

[...]
    17.9896  18.0177  18.0579  18.1993  18.3711  18.4018  18.4331  18.5120
    18.6793  18.7493  18.8349  18.8790  18.8853  18.9988  19.0421  19.1705
    19.1795  19.3543  19.3550  19.3950  19.5045  19.5396  19.5651  19.5862
    19.7246  19.7903  20.0635  20.1151  20.3134  20.3453  20.5027  20.5294
    20.5762  21.4701  23.0110  23.4106  24.1489  24.2164  24.9447  25.1937
    25.2054  25.3263  25.4613  25.5499  25.7388  25.7683  25.7750  25.8276
    26.0726  26.2131  26.4619  26.4756  26.6315  26.6474  27.7283  28.2242
    29.7518  30.3561  30.4114  30.4489  31.6718  32.3671  32.6109  33.6555
    34.6906  35.1901  35.8590  36.6265  37.0988  37.3993  37.4847  37.6418
    37.6682  37.7452  38.1693  38.3346  38.3809  39.1286  39.1591  39.8043
    40.3860  40.5719  40.7032  40.8283  40.8373  41.2691  41.6655  41.7165
    42.2365  42.5516  42.6498  42.8288  43.2012  43.6684  44.1062  44.3521
    44.6024  44.7811

          k = 0.0000 0.0000-0.2322 (  5470 PWs)   bands (ev):

   -65.3010 -65.3010 -65.2700 -65.2700 -65.1775 -65.1775 -65.1541 -65.1541
   -48.0879 -48.0879 -48.0781 -48.0781 -27.4503 -27.4503 -27.4087 -27.4087
   -27.3920 -27.3920 -27.3715 -27.3714 -27.3416 -27.3416 -27.3247 -27.3247
   -27.2971 -27.2970 -27.2307 -27.2307 -27.2155 -27.2155 -27.2010 -27.2010
   -27.1856 -27.1856 -27.1164 -27.1164 -15.2394 -15.2394 -15.2307 -15.2307
   -15.2272 -15.2272 -15.2191 -15.2191 -15.1021 -15.1020 -15.0808 -15.0808
    17.3020  17.3020  17.3147  17.3147  17.4983  17.4983  17.8706  17.8706
    17.9505  17.9505  18.3011  18.3011  18.3231  18.3231  18.4831  18.4831
    18.7422  18.7422  18.7747  18.7747  18.9021  18.9021  19.0286  19.0286
    19.3460  19.3460  19.3692  19.3692  19.4685  19.4685  19.5465  19.5465
    20.0580  20.0580  20.0841  20.0841  20.3199  20.3199  20.5392  20.5392
    20.5661  20.5661  23.4305  23.4305  23.9684  23.9684  25.2390  25.2390
    25.3446  25.3446  25.5248  25.5248  25.6213  25.6213  25.8149  25.8149
    25.9068  25.9068  26.5329  26.5330  26.5582  26.5582  28.9477  28.9477
    29.5969  29.5969  30.3763  30.3763  31.8524  31.8524  32.9770  32.9770
    34.8878  34.8878  36.4265  36.4265  37.0729  37.0729  37.3967  37.3967
    37.8432  37.8432  38.6383  38.6383  38.9350  38.9350  39.2243  39.2243
    39.9962  39.9962  40.7199  40.7199  41.1811  41.1811  41.6985  41.6985
    42.4379  42.4379  43.1434  43.1434  43.5332  43.5333  43.7624  43.7625
    44.6163  44.6166

          k = 0.0000 0.2245 0.0000 (  5445 PWs)   bands (ev):

   -65.2856 -65.2785 -65.2768 -65.2591 -65.1673 -65.1634 -65.1583 -65.1501
   -48.0858 -48.0841 -48.0786 -48.0688 -27.4401 -27.4207 -27.4169 -27.4040
   -27.3773 -27.3731 -27.3533 -27.3432 -27.3399 -27.3187 -27.3182 -27.3039
   -27.2999 -27.2874 -27.2307 -27.2300 -27.2158 -27.2153 -27.2125 -27.1993
   -27.1899 -27.1616 -27.1455 -27.1385 -15.2414 -15.2383 -15.2312 -15.2278
   -15.2238 -15.2206 -15.2185 -15.2175 -15.0992 -15.0981 -15.0813 -15.0767
    17.4774  17.5542  17.5706  17.6857  17.7068  17.7651  17.7699  17.9089
    17.9360  18.0460  18.0512  18.2520  18.3138  18.3563  18.4543  18.5143
    18.5787  18.6182  18.7154  18.8302  18.9083  18.9512  19.0408  19.1539
    19.2204  19.3013  19.3169  19.3846  19.4538  19.4740  19.7567  19.7852
    19.8346  19.8759  20.0800  20.1508  20.1771  20.2881  20.4729  20.5318
    20.6069  22.1652  22.9351  22.9746  24.3871  24.3996  24.7258  24.7912
    24.9109  24.9714  25.2710  25.3090  25.4355  25.8152  25.8702  25.9236
    25.9498  26.0626  26.2863  26.3336  26.3973  26.4253  26.5671  26.5781
    27.9397  28.3307  31.6515  32.9998  33.2577  34.2237  34.9065  34.9407
    35.1179  35.5057  35.5831  35.9702  35.9813  36.0208  36.2537  36.9554
    37.0796  37.6463  37.6521  37.9573  38.2823  38.6415  40.2607  40.6965
    41.1257  41.2467  41.4747  41.7067  41.7979  42.1195  42.3212  42.5209
    42.6779  42.7841  42.9931  42.9965  43.3245  43.5497  43.6885  43.6948
    44.2695  44.3073

          k = 0.0000 0.2245 0.1161 (  5435 PWs)   bands (ev):

   -65.2804 -65.2755 -65.2713 -65.2613 -65.1669 -65.1587 -65.1518 -65.1429
   -48.0839 -48.0826 -48.0770 -48.0672 -27.4308 -27.4163 -27.4047 -27.3922
   -27.3840 -27.3821 -27.3488 -27.3367 -27.3350 -27.3226 -27.3137 -27.3071
   -27.2963 -27.2844 -27.2268 -27.2251 -27.2182 -27.2161 -27.2103 -27.2091
   -27.1794 -27.1668 -27.1428 -27.1333 -15.2394 -15.2366 -15.2306 -15.2253
   -15.2252 -15.2186 -15.2165 -15.2144 -15.1000 -15.0981 -15.0781 -15.0719
    17.4319  17.4624  17.5201  17.6088  17.7003  17.8206  17.8482  17.9506
    18.0649  18.1198  18.1361  18.1581  18.3106  18.3791  18.4314  18.5121
    18.6747  18.7061  18.7902  18.8791  18.9281  18.9337  18.9901  19.1288
    19.1500  19.2598  19.2711  19.3592  19.4047  19.4578  19.6205  19.7272
    19.8228  19.9857  20.1034  20.1175  20.2372  20.4081  20.5231  20.5414
    20.5982  22.0383  22.3548  23.3226  24.0428  24.2982  24.8193  24.8337
    24.9976  25.0290  25.1243  25.2577  25.3966  25.5873  25.8392  25.9769
    26.0000  26.0793  26.2810  26.2913  26.4202  26.4568  26.6318  26.8571
    28.2387  29.4338  32.0406  32.1640  33.1462  33.5600  34.2539  34.5306
    34.7942  34.9937  35.3087  35.5540  35.8508  36.5828  37.1755  37.5003
    37.8998  37.9010  38.2372  38.5070  38.7412  38.9630  39.4178  40.3618
    40.5876  40.7395  41.1320  41.4198  41.5337  42.0587  42.1795  42.4630
    42.6021  42.8992  43.2166  43.3392  43.4072  43.5822  43.6298  43.6922
    43.8105  44.1975

          k = 0.0000 0.2245-0.2322 (  5466 PWs)   bands (ev):

   -65.2923 -65.2923 -65.2758 -65.2758 -65.1757 -65.1757 -65.1594 -65.1594
   -48.0873 -48.0873 -48.0792 -48.0792 -27.4333 -27.4333 -27.4089 -27.4089
   -27.3895 -27.3895 -27.3486 -27.3486 -27.3335 -27.3335 -27.3143 -27.3143
   -27.3012 -27.3011 -27.2314 -27.2314 -27.2203 -27.2203 -27.2129 -27.2129
   -27.1843 -27.1843 -27.1467 -27.1467 -15.2409 -15.2409 -15.2331 -15.2330
   -15.2262 -15.2262 -15.2241 -15.2241 -15.1053 -15.1053 -15.0796 -15.0796
    17.3905  17.3905  17.5210  17.5210  17.7694  17.7694  17.9808  17.9808
    18.0868  18.0868  18.2606  18.2606  18.2976  18.2976  18.5235  18.5235
    18.8143  18.8143  18.8222  18.8222  18.8680  18.8680  19.0334  19.0334
    19.1970  19.1970  19.3134  19.3134  19.3141  19.3141  19.6349  19.6349
    19.9705  19.9705  20.0518  20.0518  20.3675  20.3675  20.5708  20.5708
    21.1073  21.1073  22.8475  22.8475  24.0663  24.0663  24.9153  24.9153
    25.0080  25.0080  25.2549  25.2549  25.2582  25.2582  25.9308  25.9308
    26.1315  26.1315  26.1789  26.1789  26.5826  26.5826  26.6769  26.6769
    29.9519  29.9519  31.4607  31.4607  33.0902  33.0902  33.7415  33.7415
    34.8734  34.8734  35.7265  35.7265  35.8290  35.8290  37.8101  37.8101
    38.5476  38.5476  38.9619  38.9619  39.0231  39.0231  39.6223  39.6223
    40.2593  40.2593  40.3434  40.3435  42.1211  42.1211  42.4234  42.4234
    42.5477  42.5478  42.9979  42.9980  43.2324  43.2324  43.9892  43.9895
    44.0115  44.0120

          k =-0.4327 0.0000 0.0000 (  5480 PWs)   bands (ev):

   -65.2914 -65.2914 -65.2861 -65.2861 -65.1825 -65.1825 -65.1693 -65.1693
   -48.0907 -48.0907 -48.0828 -48.0828 -27.4527 -27.4527 -27.4178 -27.4178
   -27.4106 -27.4106 -27.3706 -27.3706 -27.3502 -27.3502 -27.3178 -27.3178
   -27.3048 -27.3048 -27.2388 -27.2388 -27.2117 -27.2117 -27.2056 -27.2056
   -27.1820 -27.1820 -27.1107 -27.1107 -15.2459 -15.2459 -15.2455 -15.2455
   -15.2242 -15.2242 -15.2163 -15.2163 -15.0958 -15.0958 -15.0814 -15.0814
    17.4166  17.4166  17.5892  17.5892  17.8292  17.8292  18.0213  18.0213
    18.1693  18.1693  18.2626  18.2626  18.4027  18.4027  18.4418  18.4418
    18.5470  18.5470  18.6293  18.6293  18.7117  18.7117  18.8548  18.8548
    18.9479  18.9479  19.1893  19.1893  19.3902  19.3902  19.5715  19.5715
    19.6059  19.6059  20.0712  20.0712  20.4800  20.4800  20.6300  20.6300
    22.4441  22.4441  23.9579  23.9579  24.0519  24.0519  25.1621  25.1621
    25.1816  25.1816  25.3675  25.3675  25.7468  25.7468  25.7990  25.7990
    26.1840  26.1840  26.3343  26.3343  26.6970  26.6970  27.5554  27.5554
    27.6080  27.6080  29.2567  29.2567  32.0177  32.0177  33.6571  33.6571
    34.0170  34.0170  34.5345  34.5345  34.7175  34.7175  36.7729  36.7729
    37.5536  37.5536  40.1534  40.1534  40.2957  40.2957  41.3366  41.3367
    41.3978  41.3978  41.6184  41.6185  41.6431  41.6431  42.7987  42.7987
    42.9873  42.9874  43.4189  43.4189  44.2976  44.2977  44.4431  44.4432
    44.7933  44.7936

          k =-0.4327 0.0000 0.1161 (  5462 PWs)   bands (ev):

   -65.2876 -65.2876 -65.2755 -65.2755 -65.1799 -65.1799 -65.1586 -65.1586
   -48.0854 -48.0854 -48.0815 -48.0815 -27.4493 -27.4493 -27.4120 -27.4120
   -27.3998 -27.3998 -27.3680 -27.3680 -27.3478 -27.3478 -27.3189 -27.3189
   -27.3019 -27.3019 -27.2329 -27.2329 -27.2100 -27.2100 -27.1967 -27.1967
   -27.1778 -27.1778 -27.1117 -27.1117 -15.2440 -15.2440 -15.2372 -15.2372
   -15.2223 -15.2223 -15.2122 -15.2122 -15.0930 -15.0930 -15.0823 -15.0823
    17.4385  17.4385  17.6055  17.6055  17.7736  17.7736  18.0395  18.0395
    18.1142  18.1142  18.2493  18.2493  18.3830  18.3830  18.5056  18.5056
    18.5622  18.5622  18.6853  18.6853  18.7095  18.7095  18.8561  18.8561
    19.0466  19.0466  19.1802  19.1802  19.3847  19.3847  19.4984  19.4984
    19.6765  19.6765  20.0522  20.0522  20.4007  20.4007  20.6070  20.6070
    22.4705  22.4705  23.5495  23.5495  24.1444  24.1444  25.0913  25.0913
    25.3307  25.3307  25.4848  25.4848  25.6518  25.6518  25.8292  25.8292
    26.1687  26.1687  26.4678  26.4678  26.6525  26.6525  27.0056  27.0056
    28.4932  28.4932  29.5811  29.5811  31.4932  31.4932  33.3404  33.3404
    33.9338  33.9338  34.7098  34.7098  35.1523  35.1523  35.9249  35.9249
    38.8450  38.8450  39.3144  39.3144  39.8980  39.8980  41.0727  41.0727
    41.3675  41.3675  41.8046  41.8046  42.3413  42.3413  42.9053  42.9053
    43.1497  43.1497  43.5379  43.5379  43.7097  43.7098  44.5971  44.5973
    44.8026  44.8029

          k =-0.4327 0.0000-0.2322 (  5444 PWs)   bands (ev):

   -65.2819 -65.2819 -65.2669 -65.2669 -65.1682 -65.1682 -65.1566 -65.1566
   -48.0854 -48.0854 -48.0750 -48.0750 -27.4459 -27.4459 -27.4083 -27.4083
   -27.4031 -27.4031 -27.3661 -27.3661 -27.3338 -27.3338 -27.3146 -27.3146
   -27.2978 -27.2978 -27.2282 -27.2282 -27.2178 -27.2178 -27.1900 -27.1900
   -27.1661 -27.1661 -27.1032 -27.1032 -15.2493 -15.2493 -15.2327 -15.2327
   -15.2143 -15.2143 -15.2113 -15.2113 -15.0863 -15.0863 -15.0790 -15.0790
    17.4409  17.4409  17.6573  17.6573  17.7546  17.7546  17.9466  17.9466
    18.1262  18.1262  18.1899  18.1899  18.4515  18.4515  18.5414  18.5414
    18.6002  18.6002  18.6874  18.6874  18.7399  18.7399  18.8894  18.8894
    19.0877  19.0877  19.2194  19.2194  19.3101  19.3101  19.3942  19.3942
    19.8689  19.8689  20.0194  20.0194  20.2626  20.2626  20.5892  20.5892
    22.5358  22.5358  23.1851  23.1851  24.2858  24.2858  25.0361  25.0361
    25.3226  25.3226  25.5713  25.5713  25.5860  25.5860  25.8276  25.8276
    26.1962  26.1962  26.6258  26.6258  26.6870  26.6870  26.7071  26.7071
    29.1069  29.1069  30.2429  30.2429  30.6680  30.6680  33.2543  33.2543
    33.6916  33.6916  34.0040  34.0040  35.8977  35.8977  36.7703  36.7703
    37.5254  37.5254  39.1440  39.1440  40.7499  40.7500  41.1579  41.1579
    41.2211  41.2211  42.1466  42.1466  42.3421  42.3421  42.6084  42.6085
    42.9853  42.9853  43.3179  43.3179  43.7461  43.7461  44.8774  44.8779
    45.0881  45.1907

          k =-0.4327 0.2245 0.0000 (  5442 PWs)   bands (ev):

   -65.2772 -65.2772 -65.2736 -65.2736 -65.1596 -65.1596 -65.1590 -65.1590
   -48.0810 -48.0810 -48.0787 -48.0787 -27.4245 -27.4245 -27.4119 -27.4119
   -27.3857 -27.3857 -27.3667 -27.3667 -27.3218 -27.3218 -27.3018 -27.3018
   -27.2922 -27.2922 -27.2352 -27.2352 -27.2103 -27.2103 -27.2097 -27.2097
   -27.1676 -27.1676 -27.1411 -27.1411 -15.2402 -15.2402 -15.2384 -15.2384
   -15.2176 -15.2176 -15.2105 -15.2105 -15.0889 -15.0889 -15.0850 -15.0850
    17.6694  17.6694  17.6942  17.6942  18.0335  18.0335  18.0629  18.0629
    18.2212  18.2212  18.2670  18.2670  18.5114  18.5114  18.5311  18.5311
    18.6324  18.6324  18.7486  18.7486  18.7922  18.7922  18.9370  18.9370
    19.0435  19.0435  19.0768  19.0768  19.3242  19.3242  19.4656  19.4656
    19.6576  19.6576  19.8684  19.8684  20.2003  20.2003  20.4120  20.4120
    22.8483  22.8483  23.8091  23.8091  24.2879  24.2879  24.6220  24.6220
    25.0970  25.0970  25.1552  25.1552  25.6369  25.6369  25.7460  25.7460
    26.0680  26.0680  26.1139  26.1139  26.2623  26.2623  27.0771  27.0771
    28.6348  28.6348  28.8651  28.8651  30.4957  30.4957  30.9250  30.9250
    35.8024  35.8024  36.7988  36.7988  37.4186  37.4186  38.3181  38.3181
    38.5451  38.5451  39.0527  39.0527  39.3453  39.3453  40.7712  40.7712
    41.6183  41.6183  42.0005  42.0005  42.1207  42.1207  42.4446  42.4446
    42.8674  42.8674  43.3475  43.3475  43.8841  43.8842  44.0504  44.0504
    44.8207  44.8212

          k =-0.4327 0.2245 0.1161 (  5448 PWs)   bands (ev):

   -65.2866 -65.2866 -65.2679 -65.2679 -65.1650 -65.1650 -65.1599 -65.1599
   -48.0835 -48.0835 -48.0786 -48.0786 -27.4259 -27.4259 -27.4142 -27.4142
   -27.3848 -27.3848 -27.3685 -27.3685 -27.3250 -27.3250 -27.3045 -27.3045
   -27.2898 -27.2898 -27.2304 -27.2304 -27.2202 -27.2202 -27.2115 -27.2115
   -27.1700 -27.1700 -27.1420 -27.1420 -15.2424 -15.2424 -15.2381 -15.2381
   -15.2208 -15.2208 -15.2112 -15.2112 -15.0916 -15.0916 -15.0837 -15.0837
    17.6225  17.6225  17.7641  17.7641  17.9943  17.9943  18.1144  18.1144
    18.1949  18.1949  18.2752  18.2752  18.3793  18.3793  18.5825  18.5825
    18.6831  18.6831  18.7178  18.7178  18.8159  18.8159  18.9848  18.9848
    19.0888  19.0888  19.1533  19.1533  19.3732  19.3732  19.4056  19.4056
    19.6608  19.6608  19.8275  19.8275  20.1300  20.1300  20.4073  20.4073
    22.8539  22.8539  23.4510  23.4510  24.3418  24.3418  24.7310  24.7310
    25.1358  25.1358  25.2422  25.2422  25.5332  25.5332  25.8850  25.8850
    26.0156  26.0156  26.1364  26.1364  26.2727  26.2727  26.9248  26.9248
    28.3883  28.3883  29.4161  29.4161  30.0149  30.0149  32.1527  32.1527
    35.1807  35.1807  35.7672  35.7672  36.8102  36.8102  37.6357  37.6357
    39.0848  39.0848  39.9751  39.9751  40.4618  40.4618  40.8434  40.8434
    41.7867  41.7868  41.8742  41.8742  42.1431  42.1432  42.6225  42.6226
    43.0599  43.0600  43.1416  43.1417  43.4894  43.4895  43.9686  43.9687
    44.3187  44.3190

          k =-0.4327 0.2245-0.2322 (  5472 PWs)   bands (ev):

   -65.2872 -65.2872 -65.2844 -65.2844 -65.1760 -65.1760 -65.1687 -65.1687
   -48.0853 -48.0853 -48.0852 -48.0852 -27.4380 -27.4380 -27.4131 -27.4131
   -27.3861 -27.3861 -27.3764 -27.3764 -27.3307 -27.3307 -27.3163 -27.3163
   -27.2925 -27.2925 -27.2290 -27.2290 -27.2286 -27.2286 -27.2179 -27.2179
   -27.1767 -27.1767 -27.1461 -27.1461 -15.2480 -15.2480 -15.2436 -15.2436
   -15.2198 -15.2198 -15.2183 -15.2183 -15.0929 -15.0929 -15.0883 -15.0883
    17.5870  17.5870  17.8487  17.8487  17.9855  17.9855  18.0870  18.0870
    18.1684  18.1684  18.2805  18.2805  18.3396  18.3396  18.6056  18.6056
    18.6996  18.6996  18.7460  18.7460  18.7614  18.7614  19.0802  19.0802
    19.1470  19.1470  19.2312  19.2312  19.3118  19.3118  19.3997  19.3997
    19.6351  19.6351  19.9024  19.9024  19.9861  19.9861  20.3963  20.3963
    22.9852  22.9852  23.0431  23.0431  24.5665  24.5665  24.5675  24.5675
    25.1798  25.1798  25.2552  25.2552  25.6905  25.6905  25.7622  25.7622
    26.0076  26.0076  26.1008  26.1008  26.4089  26.4089  26.7737  26.7737
    28.6422  28.6422  28.8229  28.8229  30.7789  30.7789  33.2002  33.2002
    34.3850  34.3850  34.7157  34.7157  36.4819  36.4819  37.1455  37.1455
    39.7306  39.7306  40.5501  40.5502  41.1288  41.1289  41.2161  41.2161
    41.6687  41.6688  41.7039  41.7039  42.5274  42.5274  42.6013  42.6014
    42.8810  42.8810  43.0553  43.0554  43.2965  43.2966  43.8190  43.8191
    43.9149  43.9150

     the Fermi energy is    37.7107 ev

!    total energy              =   -3670.94886859 Ry
     Harris-Foulkes estimate   =   -3670.94890633 Ry
     estimated scf accuracy    <       0.00004667 Ry

     The total energy is the sum of the following terms:

     one-electron contribution =    -513.86335515 Ry
     hartree contribution      =     495.44516606 Ry
     xc contribution           =    -324.75476786 Ry
     ewald contribution        =   -3327.43871169 Ry
     smearing contrib. (-TS)   =      -0.33719995 Ry

     convergence has been achieved in  10 iterations

     Forces acting on atoms (Ry/au):

     atom    1 type  1   force =     0.00000000   -0.04767713   -0.01407074
     atom    2 type  1   force =     0.00000000    0.04767713    0.01407074
     atom    3 type  1   force =     0.00000000   -0.04767713    0.01407074
     atom    4 type  1   force =     0.00000000    0.04767713   -0.01407074
     atom    5 type  1   force =     0.00000000    0.02361570   -0.02850192
     atom    6 type  1   force =     0.00000000   -0.02361570    0.02850192
     atom    7 type  1   force =     0.00000000    0.02361570    0.02850192
     atom    8 type  1   force =     0.00000000   -0.02361570   -0.02850192
     atom    9 type  2   force =     0.00000000   -0.06707643    0.03113403
     atom   10 type  2   force =     0.00000000    0.06707643   -0.03113403
     atom   11 type  2   force =     0.00000000   -0.06707643   -0.03113403
     atom   12 type  2   force =     0.00000000    0.06707643    0.03113403

     Total force =     0.192974     Total SCF correction =     0.000000


     entering subroutine stress ...

          total   stress  (Ry/bohr**3)                   (kbar)     P= 1593.93
   0.01213374   0.00000000   0.00000000       1784.94      0.00      0.00
   0.00000000   0.01003265   0.00000000          0.00   1475.85      0.00
   0.00000000   0.00000000   0.01033960          0.00      0.00   1521.01


     Writing output data file Prototype-La-oP12-Co2Si.save
 
     init_run     :      5.26s CPU      6.86s WALL (       2 calls)
     electrons    :   1327.47s CPU   1550.21s WALL (       5 calls)
     update_pot   :      1.90s CPU      2.69s WALL (       3 calls)
     forces       :      5.29s CPU      5.87s WALL (       5 calls)
     stress       :     15.86s CPU     16.64s WALL (       5 calls)

     Called by init_run:
     wfcinit      :      4.40s CPU      5.97s WALL (       2 calls)
     potinit      :      0.41s CPU      0.41s WALL (       2 calls)

     Called by electrons:
     c_bands      :   1302.62s CPU   1497.71s WALL (      44 calls)
     sum_band     :     24.33s CPU     33.06s WALL (      44 calls)
     v_of_rho     :      0.09s CPU      0.10s WALL (      49 calls)
     mix_rho      :      0.07s CPU      0.08s WALL (      44 calls)

     Called by c_bands:
     init_us_2    :      1.34s CPU      1.62s WALL (    1200 calls)
     ccgdiagg     :   1202.21s CPU   1367.20s WALL (     637 calls)
     wfcrot       :    103.23s CPU    133.05s WALL (     649 calls)

     Called by *cgdiagg:
     h_psi        :    785.57s CPU    937.24s WALL (  522152 calls)
     cdiaghg      :      8.24s CPU      9.81s WALL (     649 calls)

     Called by h_psi:
     add_vuspsi   :    144.12s CPU    158.05s WALL (  522152 calls)

     General routines
     calbec       :    363.32s CPU    398.85s WALL ( 1043775 calls)
     fft          :      0.13s CPU      0.15s WALL (     219 calls)
     fftw         :    414.75s CPU    507.77s WALL ( 1324210 calls)
     davcio       :      0.96s CPU      3.07s WALL (    1728 calls)
 
     Parallel routines
     fft_scatter  :    191.62s CPU    242.93s WALL ( 1324429 calls)
 
     PWSCF        : 22m36.17s CPU    26m26.04s WALL

 
   This run was terminated on:  23: 9:10  22Mar2018            

=------------------------------------------------------------------------------=
   JOB DONE.
=------------------------------------------------------------------------------=
