
     Program PWSCF v.5.0.2 starts on 22Mar2018 at 12:11:47 

     This program is part of the open-source Quantum ESPRESSO suite
     for quantum simulation of materials; please cite
         "P. Giannozzi et al., J. Phys.:Condens. Matter 21 395502 (2009);
          URL http://www.quantum-espresso.org", 
     in publications or presentations arising from this work. More details at
     http://www.quantum-espresso.org/quote.php

     Parallel version (MPI), running on     4 processors
     R & G space division:  proc/nbgrp/npool/nimage =       4

     Current dimensions of program PWSCF are:
     Max number of different atomic species (ntypx) = 10
     Max number of k-points (npk) =  40000
     Max angular momentum in pseudopotentials (lmaxx) =  3
     Waiting for input...
     Reading input from standard input

     Subspace diagonalization in iterative solution of the eigenvalue problem:
     a serial algorithm will be used

 
     Parallelization info
     --------------------
     sticks:   dense  smooth     PW     G-vecs:    dense   smooth      PW
     Min         269     269     78                 9541     9541    1486
     Max         270     270     79                 9544     9544    1487
     Sum        1077    1077    315                38169    38169    5947
 


     bravais-lattice index     =            0
     lattice parameter (alat)  =       8.8008  a.u.
     unit-cell volume          =    1116.9454 (a.u.)^3
     number of atoms/cell      =           16
     number of atomic types    =            2
     number of electrons       =       348.00
     number of Kohn-Sham states=          209
     kinetic-energy cutoff     =      40.0000  Ry
     charge density cutoff     =     160.0000  Ry
     convergence threshold     =      1.0E-04
     mixing beta               =       0.7000
     number of iterations used =            8  plain     mixing
     Exchange-correlation      = SLA-PZ-NOGX-NOGC ( 1 1 0 0 0)
     EXX-fraction              =        0.00
     nstep                     =           50


     celldm(1)=   8.800765  celldm(2)=   0.000000  celldm(3)=   0.000000
     celldm(4)=   0.000000  celldm(5)=   0.000000  celldm(6)=   0.000000

     crystal axes: (cart. coord. in units of alat)
               a(1) = (   1.000000   0.000000   0.000000 )  
               a(2) = (   0.000000   1.083771   0.000000 )  
               a(3) = (   0.000000   0.000000   1.511935 )  

     reciprocal axes: (cart. coord. in units 2 pi/alat)
               b(1) = (  1.000000  0.000000  0.000000 )  
               b(2) = (  0.000000  0.922704  0.000000 )  
               b(3) = (  0.000000  0.000000  0.661404 )  


     PseudoPot. # 1 for Yb read from file:
     /home/jld5415/pp.La/Yb.UPF
     MD5 check sum: 3e859b81cc28c53ec6aa3a2e888efcdf
     Pseudo is Norm-conserving, Zval = 24.0
     Generated in analytical, separable form
     Using radial grid of 1269 points,  6 beta functions with: 
                l(1) =   0
                l(2) =   0
                l(3) =   1
                l(4) =   1
                l(5) =   2
                l(6) =   3

     PseudoPot. # 2 for Pm read from file:
     /home/jld5415/pp.La/Pm.UPF
     MD5 check sum: 0061344aafc48faba5d75831754de21b
     Pseudo is Norm-conserving, Zval = 15.0
     Generated in analytical, separable form
     Using radial grid of 1259 points,  6 beta functions with: 
                l(1) =   0
                l(2) =   0
                l(3) =   1
                l(4) =   1
                l(5) =   2
                l(6) =   3

     atomic species   valence    mass     pseudopotential
        Fe            24.00    55.84500     Yb( 1.00)
        C             15.00    12.01070     Pm( 1.00)

      8 Sym. Ops., with inversion, found ( 6 have fractional translation)



   Cartesian axes

     site n.     atom                  positions (alat units)
         1           Fe  tau(   1) = (   0.3472940   0.1827628   1.3947267  )
         2           Fe  tau(   2) = (   0.1527060   0.7246484   0.8731757  )
         3           Fe  tau(   3) = (   0.8472940   0.3591227   0.6387592  )
         4           Fe  tau(   4) = (   0.3396640   0.4879235   0.3779837  )
         5           Fe  tau(   5) = (   0.1527060   0.7246484   1.3947267  )
         6           Fe  tau(   6) = (   0.3472940   0.1827628   0.8731757  )
         7           Fe  tau(   7) = (   0.1603360   1.0298091   0.3779837  )
         8           Fe  tau(   8) = (   0.6527060   0.9010083   0.6387592  )
         9           Fe  tau(   9) = (   0.8472940   0.3591227   0.1172082  )
        10           Fe  tau(  10) = (   0.6603360   0.5958476   1.1339512  )
        11           Fe  tau(  11) = (   0.6527060   0.9010083   0.1172082  )
        12           Fe  tau(  12) = (   0.8396640   0.0539620   1.1339512  )
        13           C   tau(  13) = (   0.0000000   0.0000000   0.0000000  )
        14           C   tau(  14) = (   0.5000000   0.5418856   0.0000000  )
        15           C   tau(  15) = (   0.5000000   0.5418856   0.7559674  )
        16           C   tau(  16) = (   0.0000000   0.0000000   0.7559674  )

     number of k points=    12  gaussian smearing, width (Ry)=  0.1000
                       cart. coord. in units 2pi/alat
        k(    1) = (   0.0000000   0.0000000   0.0000000), wk =   0.0833333
        k(    2) = (   0.0000000   0.0000000   0.1653510), wk =   0.1666667
        k(    3) = (   0.0000000   0.0000000  -0.3307021), wk =   0.0833333
        k(    4) = (   0.0000000   0.3075680   0.0000000), wk =   0.1666667
        k(    5) = (   0.0000000   0.3075680   0.1653510), wk =   0.3333333
        k(    6) = (   0.0000000   0.3075680  -0.3307021), wk =   0.1666667
        k(    7) = (  -0.5000000   0.0000000   0.0000000), wk =   0.0833333
        k(    8) = (  -0.5000000   0.0000000   0.1653510), wk =   0.1666667
        k(    9) = (  -0.5000000   0.0000000  -0.3307021), wk =   0.0833333
        k(   10) = (  -0.5000000   0.3075680   0.0000000), wk =   0.1666667
        k(   11) = (  -0.5000000   0.3075680   0.1653510), wk =   0.3333333
        k(   12) = (  -0.5000000   0.3075680  -0.3307021), wk =   0.1666667

     Dense  grid:    38169 G-vectors     FFT dimensions: (  36,  40,  54)

     Largest allocated arrays     est. size (Mb)     dimensions
        Kohn-Sham Wavefunctions         3.86 Mb     (   1211,  209)
        NL pseudopotentials             5.91 Mb     (   1211,  320)
        Each V/rho on FFT grid          0.31 Mb     (  20160)
        Each G-vector array             0.07 Mb     (   9543)
        G-vector shells                 0.07 Mb     (   9543)
     Largest temporary arrays     est. size (Mb)     dimensions
        Each subspace H/S matrix        0.67 Mb     ( 209, 209)
        Each <psi_i|beta_j> matrix      1.02 Mb     (    320,  209)
        Arrays for rho mixing           2.46 Mb     (  20160,   8)

     Initial potential from superposition of free atoms

     Starting from uniform charge
     Starting wfc are    0 randomized atomic wfcs

     total cpu time spent up to now is        5.7 secs

     Self-consistent Calculation

     iteration #  1     ecut=    40.00 Ry     beta=0.70
     CG style diagonalization
     c_bands:  1 eigenvalues not converged
     c_bands:  1 eigenvalues not converged
     c_bands:  3 eigenvalues not converged
     c_bands:  4 eigenvalues not converged
     c_bands:  3 eigenvalues not converged
     c_bands:  1 eigenvalues not converged
     c_bands:  3 eigenvalues not converged
     c_bands:  3 eigenvalues not converged
     c_bands:  3 eigenvalues not converged
     c_bands:  3 eigenvalues not converged
     c_bands:  4 eigenvalues not converged
     ethr =  1.00E-02,  avg # of iterations = 22.9

     total cpu time spent up to now is      285.8 secs

     total energy              =   -4778.52967695 Ry
     Harris-Foulkes estimate   =   -6464.48756239 Ry
     estimated scf accuracy    <    2093.69153950 Ry

     iteration #  2     ecut=    40.00 Ry     beta=0.70
     CG style diagonalization
     c_bands:  1 eigenvalues not converged
     c_bands:  1 eigenvalues not converged
     c_bands:  1 eigenvalues not converged
     ethr =  1.00E-02,  avg # of iterations = 10.3

     total cpu time spent up to now is      409.5 secs

     total energy              =   -5222.88225633 Ry
     Harris-Foulkes estimate   =   -5537.24569101 Ry
     estimated scf accuracy    <     449.92837522 Ry

     iteration #  3     ecut=    40.00 Ry     beta=0.70
     CG style diagonalization
     ethr =  1.00E-02,  avg # of iterations =  8.3

     total cpu time spent up to now is      505.5 secs

     total energy              =   -5344.34728513 Ry
     Harris-Foulkes estimate   =   -5433.52129369 Ry
     estimated scf accuracy    <     178.10015129 Ry

     iteration #  4     ecut=    40.00 Ry     beta=0.70
     CG style diagonalization
     ethr =  1.00E-02,  avg # of iterations =  5.0

     total cpu time spent up to now is      560.6 secs

     total energy              =   -5386.27256544 Ry
     Harris-Foulkes estimate   =   -5389.01700407 Ry
     estimated scf accuracy    <       4.75591242 Ry

     iteration #  5     ecut=    40.00 Ry     beta=0.70
     CG style diagonalization
     ethr =  1.37E-03,  avg # of iterations =  4.0

     total cpu time spent up to now is      603.5 secs

     total energy              =   -5387.86197040 Ry
     Harris-Foulkes estimate   =   -5388.22507063 Ry
     estimated scf accuracy    <       0.57978320 Ry

     iteration #  6     ecut=    40.00 Ry     beta=0.70
     CG style diagonalization
     c_bands:  1 eigenvalues not converged
     c_bands:  1 eigenvalues not converged
     c_bands:  1 eigenvalues not converged
     c_bands:  3 eigenvalues not converged
     c_bands:  1 eigenvalues not converged
     ethr =  1.67E-04,  avg # of iterations =  4.4

     total cpu time spent up to now is      650.2 secs

     total energy              =   -5388.08124409 Ry
     Harris-Foulkes estimate   =   -5388.14902194 Ry
     estimated scf accuracy    <       0.13002204 Ry

     iteration #  7     ecut=    40.00 Ry     beta=0.70
     CG style diagonalization
     c_bands:  1 eigenvalues not converged
     ethr =  3.74E-05,  avg # of iterations =  4.0

     total cpu time spent up to now is      692.6 secs

     total energy              =   -5388.12137595 Ry
     Harris-Foulkes estimate   =   -5388.12301696 Ry
     estimated scf accuracy    <       0.00324841 Ry

     iteration #  8     ecut=    40.00 Ry     beta=0.70
     CG style diagonalization
     c_bands:  1 eigenvalues not converged
     c_bands:  1 eigenvalues not converged
     c_bands:  1 eigenvalues not converged
     c_bands:  2 eigenvalues not converged
     c_bands:  1 eigenvalues not converged
     ethr =  9.33E-07,  avg # of iterations =  5.4

     total cpu time spent up to now is      754.6 secs

     total energy              =   -5388.12401824 Ry
     Harris-Foulkes estimate   =   -5388.12438740 Ry
     estimated scf accuracy    <       0.00060342 Ry

     iteration #  9     ecut=    40.00 Ry     beta=0.70
     CG style diagonalization
     c_bands:  1 eigenvalues not converged
     c_bands:  1 eigenvalues not converged
     ethr =  1.73E-07,  avg # of iterations =  3.9

     total cpu time spent up to now is      793.8 secs

     total energy              =   -5388.12418078 Ry
     Harris-Foulkes estimate   =   -5388.12430725 Ry
     estimated scf accuracy    <       0.00023480 Ry

     iteration # 10     ecut=    40.00 Ry     beta=0.70
     CG style diagonalization
     c_bands:  1 eigenvalues not converged
     ethr =  6.75E-08,  avg # of iterations =  3.5

     total cpu time spent up to now is      828.5 secs

     End of self-consistent calculation

          k = 0.0000 0.0000 0.0000 (  4785 PWs)   bands (ev):

   -69.1892 -69.1826 -69.1640 -69.1536 -69.1409 -69.1305 -69.1144 -69.1120
   -68.9392 -68.9358 -68.9290 -68.9032 -29.7444 -29.6572 -29.4006 -29.3677
   -29.3533 -29.3303 -29.1559 -29.1404 -29.1165 -29.0863 -29.0614 -28.9564
   -28.2014 -28.1806 -28.1680 -28.1544 -28.0587 -28.0110 -27.9950 -27.9519
   -27.9492 -27.9183 -27.8282 -27.8023 -27.7769 -27.7070 -27.7067 -27.6965
   -27.6534 -27.6325 -27.5406 -27.5370 -27.5251 -27.5224 -27.3762 -27.3689
    -4.1249  -3.7075  -3.2356  -2.8047  14.2056  14.3096  14.4498  14.7099
    15.1235  15.1421  16.3388  16.5331  16.6899  16.9672  17.3445  17.3629
    24.4318  24.4629  24.9805  25.1418  25.3197  25.4278  25.6780  26.0872
    26.3592  26.5562  26.6335  26.6762  26.7816  26.8254  26.9268  27.0635
    27.3598  27.4511  27.4673  27.5619  27.5890  27.6781  27.9732  28.0770
    28.2185  28.2615  28.5480  28.5577  28.5939  28.7897  28.9302  28.9449
    29.1077  29.1684  29.2724  29.4779  29.5184  29.7504  29.7550  29.7626
    29.7642  29.8104  29.9620  30.4309  30.5088  30.5669  30.6118  30.6118
    30.8834  30.9921  31.6984  31.7210  31.7713  32.4622  32.6020  33.4848
    34.5448  34.6214  35.0100  35.3200  35.9658  39.0909  39.8024  40.4808
    40.5605  40.6889  41.5880  41.6188  42.8345  43.2646  43.7841  44.0573
    45.0458  45.2364  45.5152  46.2388  46.3118  46.3990  47.3917  48.1241
    48.2225  49.2851  50.0312  50.0919  50.5427  50.9226  51.1131  51.1801
    51.5018  51.6401  51.6692  51.9981  52.1984  52.4763  52.5636  53.6546
    53.6887  53.8222  54.2491  54.3138  54.3788  54.7479  55.0500  55.3240
    55.9256  56.4813  56.7401  56.8322  57.0802  57.0809  57.7796  58.1705
    58.5803  58.8415  58.9989  59.5466  59.6413  59.6878  59.7807  59.9546
    60.2711  60.4342  60.6027  60.8756  61.1907  61.2323  61.2922  61.4388
    61.5007  61.7380  62.4478  62.5970  62.9587  63.0156  63.0986  63.1362
    63.9568  64.1335  64.1579  64.2079  64.3487  64.3844  64.4078  64.5767
    65.5774

          k = 0.0000 0.0000 0.1654 (  4759 PWs)   bands (ev):

   -69.1798 -69.1796 -69.1608 -69.1344 -69.1105 -69.1093 -69.0885 -69.0775
   -68.9399 -68.9133 -68.8978 -68.8777 -29.7332 -29.6695 -29.3937 -29.3715
   -29.3475 -29.3298 -29.1471 -29.1366 -29.1110 -29.0925 -29.0453 -28.9648
   -28.1757 -28.1674 -28.1626 -28.1447 -28.0588 -28.0216 -28.0067 -27.9613
   -27.9090 -27.9015 -27.8402 -27.7976 -27.7766 -27.7636 -27.7030 -27.6967
   -27.6122 -27.6096 -27.5513 -27.5502 -27.5221 -27.5115 -27.3681 -27.3652
    -4.0651  -3.7709  -3.1743  -2.8702  14.2305  14.3190  14.5941  14.7257
    15.2239  15.3520  16.2918  16.3196  16.6657  16.9641  17.0245  17.2667
    24.4425  24.4618  25.1821  25.3475  25.3838  25.4091  25.7277  26.0931
    26.3587  26.4143  26.4813  26.7559  26.8876  26.9359  26.9472  26.9969
    27.0623  27.4462  27.4918  27.5734  27.6515  27.8684  27.9839  28.1413
    28.1467  28.3822  28.5722  28.5767  28.6338  28.8194  28.9486  28.9869
    28.9963  29.1269  29.2876  29.2905  29.5370  29.5381  29.7542  29.7713
    29.9669  30.0825  30.2259  30.3514  30.3514  30.3742  30.5190  30.6463
    30.9276  31.3458  31.3494  31.6446  31.7848  32.4793  32.6597  33.1486
    34.3214  34.6592  34.6905  35.0698  36.2923  38.4112  39.3714  40.9880
    40.9923  41.3626  41.9981  42.3043  42.6026  43.4749  43.7623  44.1905
    44.7086  45.2787  45.5588  45.7475  47.0922  47.3191  47.7448  47.7574
    48.1493  48.8530  49.1921  49.3833  49.8300  50.0260  50.5442  50.5697
    51.5836  51.6380  52.1006  52.3452  52.5694  52.6890  52.7586  52.8607
    53.1821  53.7406  53.8460  54.5820  54.6090  55.5876  55.8301  55.9884
    56.1343  56.3810  56.5980  56.9111  57.4713  57.5557  57.5867  57.8825
    57.9379  58.5827  59.0715  59.4933  59.6957  59.8195  60.0683  60.5519
    60.5730  60.5765  60.6042  60.8530  60.9116  61.2867  61.3025  61.6084
    61.6430  62.1829  62.3666  62.4757  62.5901  62.8658  62.9417  63.5665
    63.8395  63.8673  63.9389  64.1814  64.4462  64.5270  64.5880  65.2268
    65.3490

          k = 0.0000 0.0000-0.3307 (  4758 PWs)   bands (ev):

   -69.1965 -69.1965 -69.1720 -69.1720 -69.0855 -69.0855 -69.0711 -69.0711
   -68.9162 -68.9162 -68.8944 -68.8944 -29.7045 -29.7045 -29.3796 -29.3796
   -29.3388 -29.3388 -29.1390 -29.1390 -29.1064 -29.1064 -29.0041 -29.0041
   -28.1676 -28.1676 -28.1486 -28.1486 -28.0454 -28.0454 -27.9900 -27.9900
   -27.8721 -27.8721 -27.8448 -27.8448 -27.7866 -27.7866 -27.7034 -27.7034
   -27.5793 -27.5793 -27.5741 -27.5741 -27.5091 -27.5091 -27.3657 -27.3657
    -3.9202  -3.9202  -3.0249  -3.0249  14.2873  14.2873  14.7312  14.7312
    15.6661  15.6661  15.9526  15.9526  16.6573  16.6573  17.0928  17.0928
    24.4550  24.4550  25.2810  25.2810  25.5086  25.5086  26.0529  26.0529
    26.5329  26.5329  26.5935  26.5935  26.8303  26.8303  26.8452  26.8452
    27.2886  27.2886  27.2986  27.2986  27.9639  27.9639  27.9651  27.9651
    28.3311  28.3311  28.5623  28.5623  28.8306  28.8306  28.8960  28.8960
    29.1709  29.1709  29.5257  29.5257  29.5484  29.5484  29.7550  29.7550
    29.9523  29.9523  30.0565  30.0565  30.4088  30.4088  30.6036  30.6036
    30.9450  30.9450  31.5498  31.5498  32.3550  32.3550  32.6402  32.6402
    34.2242  34.2242  34.7943  34.7943  37.1100  37.1100  40.0476  40.0476
    41.9324  41.9324  42.9116  42.9116  42.9369  42.9369  43.8822  43.8822
    45.2391  45.2391  45.4038  45.4038  46.9047  46.9047  48.0259  48.0259
    48.8190  48.8190  49.2747  49.2747  49.4066  49.4066  49.7385  49.7385
    51.0870  51.0870  52.0541  52.0541  52.7802  52.7802  53.2595  53.2595
    53.5368  53.5368  53.7336  53.7336  54.6478  54.6478  56.2751  56.2751
    56.8174  56.8174  57.0481  57.0481  57.7943  57.7943  57.9457  57.9457
    58.6158  58.6158  58.6420  58.6420  60.0381  60.0381  60.3344  60.3344
    60.7314  60.7314  60.7974  60.7974  61.4210  61.4211  61.5797  61.5797
    61.7612  61.7612  61.9539  61.9539  62.4206  62.4207  63.3084  63.3085
    63.8345  63.8346  63.9333  63.9333  64.7690  64.7692  64.8492  64.8495
    65.4206

          k = 0.0000 0.3076 0.0000 (  4761 PWs)   bands (ev):

   -69.1854 -69.1791 -69.1339 -69.1251 -69.1233 -69.1168 -69.1076 -69.0775
   -68.9393 -68.9252 -68.8953 -68.8803 -29.6620 -29.5781 -29.4693 -29.4273
   -29.3375 -29.3104 -29.2064 -29.1881 -29.0865 -29.0736 -29.0471 -28.9726
   -28.1899 -28.1853 -28.1514 -28.1431 -28.0334 -28.0093 -27.9910 -27.9638
   -27.9348 -27.9144 -27.8175 -27.8076 -27.7715 -27.7382 -27.7037 -27.6996
   -27.6446 -27.6323 -27.5374 -27.5350 -27.4870 -27.4766 -27.4073 -27.4021
    -3.9096  -3.4899  -3.4655  -3.0393  14.6690  14.7231  14.7389  15.1519
    15.1860  15.4032  15.9990  16.0209  16.2124  16.3968  16.7448  17.0599
    25.0970  25.2513  25.4703  25.6256  25.7331  25.7475  25.7821  26.1215
    26.3099  26.3207  26.3931  26.4238  26.7625  26.7948  26.9740  27.1311
    27.1543  27.1623  27.5221  27.6765  27.7200  27.7807  27.8502  27.8642
    28.0877  28.1798  28.2302  28.3539  28.5010  28.6059  28.6999  28.7528
    28.8634  28.8871  29.4301  29.5358  29.6054  29.6518  29.7992  29.8713
    29.9218  30.1277  30.2239  30.3583  30.7080  30.7790  30.8862  30.9904
    31.0570  31.1478  31.7555  31.8281  32.0204  32.1687  32.6741  33.2018
    33.3688  33.7392  33.9873  34.0054  37.0300  38.8598  40.3039  40.4411
    41.0725  41.5248  41.9972  42.4258  43.4016  43.9299  44.4569  44.5442
    45.1601  45.7966  45.9798  46.0564  46.5897  47.3453  47.5075  47.6239
    47.8363  47.9758  49.1355  49.4375  49.7802  49.8635  49.9055  50.0192
    50.3485  50.5355  51.0680  51.7387  52.0813  52.2412  52.7601  52.7875
    53.0668  53.0998  53.9567  54.8134  54.8642  55.2039  55.3422  56.3783
    56.5555  56.6703  56.9256  57.0974  57.2454  57.2657  57.5583  57.7662
    58.0949  59.0895  59.4465  59.5768  59.9049  59.9432  60.1958  60.4534
    60.8654  60.8684  60.9137  61.2144  61.2305  61.8019  61.9104  62.0628
    62.2519  62.6743  62.7661  63.1305  63.3203  63.4713  63.6691  63.9408
    63.9761  64.1743  64.4926  64.6465  64.6870  64.7334  65.0888  65.1537
    65.4593

          k = 0.0000 0.3076 0.1654 (  4779 PWs)   bands (ev):

   -69.1919 -69.1906 -69.1647 -69.1563 -69.1479 -69.1234 -69.1064 -69.0907
   -68.9383 -68.9313 -68.9168 -68.9152 -29.6530 -29.5951 -29.4652 -29.4375
   -29.3400 -29.3137 -29.2067 -29.1910 -29.0893 -29.0563 -29.0522 -28.9903
   -28.1786 -28.1775 -28.1535 -28.1421 -28.0362 -28.0117 -28.0114 -27.9818
   -27.9035 -27.8990 -27.8312 -27.8118 -27.7760 -27.7534 -27.7369 -27.7191
   -27.6147 -27.6144 -27.5493 -27.5486 -27.4860 -27.4782 -27.4071 -27.4058
    -3.8509  -3.5538  -3.4056  -3.1041  14.7686  14.8256  14.8941  15.1688
    15.3097  15.4083  16.0216  16.0704  16.1826  16.3358  16.4143  16.7020
    25.2286  25.3385  25.4870  25.6462  25.7120  25.8479  25.9561  26.1098
    26.2237  26.2938  26.3308  26.5443  26.6509  26.7732  26.7872  27.0795
    27.2431  27.4322  27.4760  27.5385  27.7615  27.8483  27.8853  27.9187
    28.0878  28.1534  28.3141  28.4526  28.4738  28.5604  28.6839  28.7699
    29.0434  29.1982  29.2899  29.4334  29.4335  29.6795  29.7681  29.7983
    29.9760  30.1915  30.2476  30.4712  30.4830  30.6502  30.6759  30.7540
    31.3135  31.5506  31.7640  31.8586  32.0760  32.1896  32.6331  33.1039
    33.1887  33.4635  33.6406  33.7217  37.3141  39.0739  39.1204  40.1905
    42.1246  42.3139  42.6065  42.6925  43.7055  44.0595  44.1906  44.9365
    44.9684  45.4021  45.8549  46.3043  47.0987  47.3177  47.4310  47.4751
    48.0884  48.1020  48.6164  48.7969  49.0000  49.2081  49.7186  49.9552
    50.2492  50.6576  50.9520  51.1769  51.5761  51.5835  52.3129  53.2273
    53.6919  53.8857  54.1149  54.6067  55.1284  55.3420  55.9631  56.2123
    56.3978  56.8379  56.8572  56.9976  57.4852  57.6030  57.8116  57.9394
    58.0727  59.0422  59.5110  59.6162  59.8569  59.8699  60.1019  60.1257
    60.7142  60.7781  60.8792  61.0997  61.6176  61.9341  62.1865  62.3960
    62.6125  62.7285  62.8428  63.0476  63.1483  63.1800  63.3296  63.5723
    63.9374  63.9903  64.1039  64.2721  64.5483  65.0183  65.0654  65.2110
    65.3699

          k = 0.0000 0.3076-0.3307 (  4780 PWs)   bands (ev):

   -69.1882 -69.1882 -69.1805 -69.1805 -69.1177 -69.1177 -69.1025 -69.1025
   -68.9340 -68.9340 -68.9180 -68.9180 -29.6270 -29.6270 -29.4510 -29.4510
   -29.3233 -29.3233 -29.2009 -29.2009 -29.0698 -29.0698 -29.0243 -29.0243
   -28.1589 -28.1589 -28.1532 -28.1532 -28.0317 -28.0317 -28.0034 -28.0034
   -27.8598 -27.8598 -27.8467 -27.8467 -27.7777 -27.7777 -27.7367 -27.7367
   -27.5808 -27.5808 -27.5778 -27.5778 -27.4814 -27.4814 -27.4067 -27.4067
    -3.7041  -3.7041  -3.2573  -3.2573  14.8354  14.8354  15.1785  15.1785
    15.7219  15.7219  15.8746  15.8746  16.1476  16.1476  16.2014  16.2014
    25.3019  25.3019  25.5584  25.5584  25.9076  25.9076  26.0901  26.0901
    26.4290  26.4290  26.4857  26.4857  26.6336  26.6336  26.6543  26.6543
    27.3408  27.3408  27.6604  27.6604  27.8280  27.8280  27.8692  27.8692
    28.2545  28.2545  28.3423  28.3423  28.4244  28.4244  28.7979  28.7979
    29.2375  29.2375  29.3567  29.3567  29.7296  29.7296  29.8083  29.8083
    29.9584  29.9584  30.0289  30.0289  30.5898  30.5898  30.6728  30.6728
    31.7131  31.7131  31.7314  31.7314  32.4447  32.4447  32.5483  32.5483
    33.2344  33.2344  33.2685  33.2685  38.0426  38.0426  39.6047  39.6047
    42.7534  42.7534  43.3695  43.3695  44.1396  44.1396  44.4450  44.4450
    45.3905  45.3905  45.8686  45.8686  46.8610  46.8610  47.4754  47.4754
    48.0385  48.0385  48.1943  48.1943  48.9916  48.9916  49.8334  49.8334
    50.2114  50.2114  50.6831  50.6831  52.1131  52.1131  52.3044  52.3044
    53.0668  53.0668  54.7505  54.7505  56.0587  56.0587  56.1073  56.1073
    56.5478  56.5478  56.8346  56.8346  57.6985  57.6985  58.1106  58.1106
    59.0347  59.0347  59.0694  59.0694  60.0059  60.0059  60.1451  60.1451
    60.7871  60.7871  60.8244  60.8245  62.1082  62.1083  62.2793  62.2793
    62.6781  62.6782  62.8175  62.8175  62.9857  62.9858  63.3043  63.3043
    64.0457  64.0459  64.2574  64.2575  64.3322  64.3322  65.0756  65.0757
    65.6803

          k =-0.5000 0.0000 0.0000 (  4798 PWs)   bands (ev):

   -69.2167 -69.2167 -69.1677 -69.1677 -69.1387 -69.1387 -69.1144 -69.1144
   -68.9420 -68.9420 -68.9255 -68.9255 -29.6128 -29.6128 -29.5337 -29.5337
   -29.2537 -29.2537 -29.2323 -29.2323 -29.0839 -29.0839 -28.9968 -28.9968
   -28.1937 -28.1937 -28.1496 -28.1496 -28.0224 -28.0224 -27.9740 -27.9740
   -27.8894 -27.8894 -27.8101 -27.8101 -27.7877 -27.7877 -27.7034 -27.7034
   -27.6712 -27.6712 -27.5381 -27.5381 -27.5252 -27.5252 -27.3745 -27.3745
    -3.6835  -3.6835  -3.2739  -3.2739  14.7757  14.7757  15.4366  15.4366
    15.4636  15.4636  15.6174  15.6174  15.8624  15.8624  16.8891  16.8891
    25.0755  25.0755  25.4749  25.4749  25.8318  25.8318  26.0024  26.0024
    26.2129  26.2129  26.2944  26.2944  26.7915  26.7915  27.0018  27.0018
    27.2638  27.2638  27.4205  27.4205  27.6765  27.6764  27.9739  27.9739
    28.2755  28.2755  28.3142  28.3142  28.5619  28.5619  28.7519  28.7519
    29.2483  29.2483  29.3029  29.3029  29.6981  29.6981  29.7752  29.7752
    29.9856  29.9856  30.3722  30.3722  30.5979  30.5979  31.3103  31.3103
    31.3839  31.3839  31.5611  31.5611  31.9125  31.9125  32.9946  32.9946
    33.0856  33.0856  33.5881  33.5881  38.4516  38.4516  40.4337  40.4337
    42.0013  42.0013  42.4837  42.4837  43.5184  43.5184  44.9060  44.9060
    45.7865  45.7865  45.8892  45.8892  46.3725  46.3725  47.8816  47.8816
    48.0354  48.0354  48.5678  48.5678  49.4878  49.4878  50.1914  50.1914
    50.4374  50.4374  51.5850  51.5850  51.7011  51.7011  52.9974  52.9974
    54.2494  54.2494  54.2921  54.2921  55.1273  55.1273  55.9086  55.9086
    56.7958  56.7958  57.2924  57.2924  57.3357  57.3357  58.2893  58.2893
    58.7862  58.7862  59.0884  59.0884  59.3930  59.3930  60.1317  60.1317
    60.4408  60.4408  60.5661  60.5661  61.4760  61.4761  61.5110  61.5110
    61.9415  61.9415  62.3717  62.3717  62.6066  62.6067  62.8643  62.8644
    64.0615  64.0621  64.1092  64.1095  64.6811  64.6823  64.7512  64.7523
    64.8828

          k =-0.5000 0.0000 0.1654 (  4784 PWs)   bands (ev):

   -69.2165 -69.2165 -69.1812 -69.1812 -69.1022 -69.1022 -69.0955 -69.0955
   -68.9468 -68.9468 -68.9054 -68.9054 -29.6013 -29.6013 -29.5461 -29.5461
   -29.2571 -29.2571 -29.2284 -29.2284 -29.0665 -29.0665 -29.0053 -29.0053
   -28.1708 -28.1708 -28.1487 -28.1487 -28.0249 -28.0249 -27.9784 -27.9784
   -27.8758 -27.8758 -27.8173 -27.8173 -27.7895 -27.7895 -27.7332 -27.7332
   -27.6383 -27.6383 -27.5542 -27.5542 -27.5120 -27.5120 -27.3725 -27.3725
    -3.6254  -3.6254  -3.3355  -3.3355  15.0235  15.0235  15.4748  15.4748
    15.4999  15.4999  15.5910  15.5910  15.8131  15.8131  16.5472  16.5472
    25.3359  25.3359  25.5148  25.5148  25.7680  25.7680  26.0382  26.0382
    26.1042  26.1042  26.2957  26.2957  26.8350  26.8350  26.9475  26.9475
    27.2105  27.2105  27.4950  27.4950  27.6925  27.6925  28.0308  28.0308
    28.1217  28.1217  28.2854  28.2854  28.7226  28.7226  28.8902  28.8902
    29.1510  29.1510  29.3044  29.3044  29.6393  29.6393  29.8829  29.8829
    29.9321  29.9321  30.4933  30.4933  30.6799  30.6799  30.9645  30.9645
    31.5337  31.5337  31.6582  31.6582  32.1400  32.1400  32.6605  32.6605
    32.9029  32.9029  33.3364  33.3364  38.6391  38.6391  39.9197  39.9197
    42.7144  42.7144  42.8351  42.8351  43.8362  43.8362  45.0370  45.0370
    45.7180  45.7180  45.9406  45.9406  46.4250  46.4250  47.2056  47.2056
    47.8773  47.8773  48.5244  48.5244  49.5948  49.5948  49.9057  49.9057
    50.7794  50.7794  51.1818  51.1818  51.4208  51.4208  52.8911  52.8911
    53.9270  53.9270  54.7415  54.7415  54.9273  54.9273  56.2154  56.2154
    56.4638  56.4638  57.5048  57.5048  57.7284  57.7284  58.0842  58.0842
    58.6224  58.6224  58.9275  58.9275  59.3986  59.3986  60.2075  60.2076
    60.2957  60.2957  60.9242  60.9242  61.5135  61.5135  61.5982  61.5982
    62.2947  62.2948  62.3693  62.3694  63.0495  63.0497  63.1985  63.1987
    63.5618  63.5619  64.0059  64.0063  64.5129  64.5130  64.7459  64.7460
    65.0575

          k =-0.5000 0.0000-0.3307 (  4788 PWs)   bands (ev):

   -69.2341 -69.2341 -69.2022 -69.2022 -69.1196 -69.1196 -69.0577 -69.0577
   -68.9601 -68.9601 -68.8982 -68.8982 -29.5866 -29.5866 -29.5622 -29.5622
   -29.2619 -29.2619 -29.2239 -29.2239 -29.0440 -29.0440 -29.0293 -29.0293
   -28.1588 -28.1588 -28.1439 -28.1439 -28.0272 -28.0272 -27.9884 -27.9884
   -27.8526 -27.8526 -27.8313 -27.8313 -27.7923 -27.7923 -27.7592 -27.7592
   -27.6159 -27.6159 -27.5713 -27.5713 -27.5091 -27.5091 -27.3691 -27.3691
    -3.4847  -3.4847  -3.4795  -3.4795  15.4590  15.4590  15.5087  15.5087
    15.5367  15.5367  15.6011  15.6011  15.8202  15.8202  15.9282  15.9282
    25.5578  25.5578  25.6569  25.6569  25.7080  25.7080  25.9546  25.9546
    26.0501  26.0501  26.4314  26.4314  26.7901  26.7901  26.9442  26.9442
    27.0113  27.0113  27.5098  27.5098  27.7402  27.7402  27.8832  27.8832
    28.2684  28.2684  28.3556  28.3556  28.9287  28.9287  28.9585  28.9585
    29.0972  29.0972  29.2189  29.2189  29.6811  29.6811  29.6903  29.6903
    30.1257  30.1257  30.5548  30.5548  30.6548  30.6548  30.7001  30.7001
    31.8664  31.8664  31.9093  31.9093  32.1094  32.1094  32.4984  32.4984
    32.5722  32.5722  32.9719  32.9719  38.8867  38.8867  39.5056  39.5056
    43.1507  43.1507  43.4399  43.4399  44.3328  44.3328  44.9024  44.9024
    45.3120  45.3120  46.0841  46.0841  46.5493  46.5493  47.1623  47.1623
    47.7189  47.7189  47.7265  47.7265  49.9749  49.9749  50.2432  50.2432
    50.3862  50.3862  50.9450  50.9450  50.9870  50.9870  53.0222  53.0222
    53.6565  53.6565  54.4345  54.4345  55.3316  55.3316  56.0765  56.0765
    56.3351  56.3351  57.1566  57.1566  58.0590  58.0590  58.6035  58.6035
    58.8327  58.8327  58.9544  58.9544  59.0668  59.0668  60.2984  60.2984
    60.8753  60.8754  60.9696  60.9696  61.2632  61.2632  61.5815  61.5815
    62.2451  62.2451  62.2619  62.2620  62.6032  62.6032  63.2216  63.2216
    63.8770  63.8772  64.2151  64.2153  64.3512  64.3513  65.4908  65.4939
    65.5138

          k =-0.5000 0.3076 0.0000 (  4776 PWs)   bands (ev):

   -69.1981 -69.1981 -69.1536 -69.1536 -69.1388 -69.1388 -69.0761 -69.0761
   -68.9396 -68.9396 -68.8988 -68.8988 -29.5650 -29.5650 -29.4711 -29.4711
   -29.3119 -29.3119 -29.2919 -29.2919 -29.0807 -29.0807 -28.9753 -28.9753
   -28.1765 -28.1765 -28.1559 -28.1559 -28.0272 -28.0272 -27.9643 -27.9643
   -27.8942 -27.8942 -27.8042 -27.8042 -27.7855 -27.7855 -27.7065 -27.7065
   -27.6650 -27.6650 -27.5359 -27.5359 -27.4871 -27.4871 -27.4051 -27.4051
    -3.6774  -3.6774  -3.2669  -3.2669  14.6605  14.6605  14.7288  14.7288
    15.1045  15.1045  16.1436  16.1436  16.6019  16.6019  17.0204  17.0204
    24.5012  24.5012  25.3256  25.3256  25.6544  25.6544  25.8456  25.8456
    26.3476  26.3476  26.4589  26.4589  26.8963  26.8963  27.3076  27.3076
    27.3128  27.3128  27.6076  27.6076  27.6503  27.6503  28.0611  28.0611
    28.1311  28.1311  28.4506  28.4506  28.7110  28.7110  28.7573  28.7573
    29.1477  29.1477  29.5750  29.5750  29.6546  29.6546  29.9000  29.9000
    29.9725  29.9725  30.4596  30.4596  30.5908  30.5908  30.9262  30.9262
    30.9495  30.9495  31.4399  31.4399  31.5257  31.5257  32.7805  32.7805
    33.7491  33.7491  34.1062  34.1062  38.9240  38.9240  40.1079  40.1079
    41.7705  41.7705  42.9811  42.9811  43.0215  43.0215  44.6922  44.6922
    44.8150  44.8150  45.7976  45.7976  46.6686  46.6686  47.5973  47.5973
    48.3957  48.3957  48.9910  48.9910  49.1972  49.1972  49.8802  49.8802
    49.9432  49.9432  52.1919  52.1919  52.7257  52.7257  53.6105  53.6105
    54.2045  54.2045  54.2647  54.2647  54.7086  54.7086  55.7520  55.7520
    56.2383  56.2383  57.5081  57.5081  57.9508  57.9508  57.9870  57.9870
    58.3975  58.3975  58.9296  58.9296  59.7781  59.7781  59.8740  59.8740
    60.5808  60.5808  60.8065  60.8065  61.3997  61.3997  61.8451  61.8451
    62.0753  62.0753  62.5026  62.5027  62.9398  62.9399  63.0702  63.0703
    63.3163  63.3163  63.8896  63.8896  64.2782  64.2782  64.9883  64.9885
    65.6295

          k =-0.5000 0.3076 0.1654 (  4784 PWs)   bands (ev):

   -69.1932 -69.1932 -69.1675 -69.1675 -69.1377 -69.1377 -69.0909 -69.0909
   -68.9386 -68.9386 -68.9109 -68.9109 -29.5543 -29.5543 -29.4857 -29.4857
   -29.3131 -29.3131 -29.2965 -29.2965 -29.0623 -29.0623 -28.9918 -28.9918
   -28.1693 -28.1693 -28.1522 -28.1522 -28.0285 -28.0285 -27.9857 -27.9857
   -27.8698 -27.8698 -27.8079 -27.8079 -27.7881 -27.7881 -27.7443 -27.7443
   -27.6317 -27.6317 -27.5537 -27.5537 -27.4796 -27.4796 -27.4060 -27.4060
    -3.6192  -3.6192  -3.3294  -3.3294  14.7548  14.7548  14.7930  14.7930
    15.1964  15.1964  16.1206  16.1206  16.5561  16.5561  16.7330  16.7330
    24.7509  24.7509  25.3430  25.3430  25.7145  25.7145  25.8120  25.8120
    26.0978  26.0978  26.5181  26.5181  26.9134  26.9134  27.1489  27.1489
    27.2178  27.2178  27.5978  27.5978  27.9270  27.9270  28.0582  28.0582
    28.2295  28.2295  28.4237  28.4237  28.7653  28.7653  28.9050  28.9050
    29.1768  29.1768  29.4772  29.4772  29.5654  29.5654  29.8928  29.8928
    30.0906  30.0906  30.3608  30.3608  30.5866  30.5866  30.8226  30.8226
    31.0706  31.0706  31.3683  31.3683  31.8242  31.8242  32.7289  32.7289
    33.5083  33.5083  33.6248  33.6248  39.2580  39.2580  40.1202  40.1202
    41.9230  41.9230  42.6461  42.6461  43.5301  43.5301  44.3857  44.3857
    45.5077  45.5077  45.9570  45.9570  46.6075  46.6075  47.4501  47.4501
    48.0831  48.0831  48.5347  48.5347  49.0749  49.0749  49.9237  49.9237
    50.4187  50.4187  51.7592  51.7592  52.3667  52.3667  53.0461  53.0461
    54.4856  54.4856  54.6876  54.6876  55.2466  55.2466  55.4134  55.4134
    56.2951  56.2951  56.8432  56.8432  57.3902  57.3902  58.1001  58.1001
    58.5809  58.5809  59.1268  59.1268  59.8578  59.8578  60.2195  60.2195
    60.6453  60.6453  61.1379  61.1379  61.2795  61.2795  61.8763  61.8763
    62.1655  62.1656  62.5078  62.5079  62.9114  62.9115  63.3394  63.3396
    63.6271  63.6273  64.1209  64.1211  64.3817  64.3819  64.6483  64.6485
    65.1583

          k =-0.5000 0.3076-0.3307 (  4752 PWs)   bands (ev):

   -69.1660 -69.1660 -69.1598 -69.1598 -69.1014 -69.1014 -69.0626 -69.0626
   -68.9156 -68.9156 -68.8867 -68.8867 -29.5257 -29.5257 -29.5140 -29.5140
   -29.3081 -29.3081 -29.2953 -29.2953 -29.0249 -29.0249 -29.0128 -29.0128
   -28.1524 -28.1524 -28.1430 -28.1430 -28.0215 -28.0215 -28.0021 -28.0021
   -27.8344 -27.8344 -27.8188 -27.8188 -27.7809 -27.7809 -27.7688 -27.7688
   -27.5965 -27.5965 -27.5751 -27.5751 -27.4724 -27.4724 -27.4005 -27.4005
    -3.4772  -3.4772  -3.4745  -3.4745  14.8203  14.8203  14.8214  14.8214
    15.6958  15.6958  15.7349  15.7349  16.4779  16.4779  16.5141  16.5141
    25.1678  25.1678  25.1932  25.1932  25.7356  25.7356  25.8644  25.8644
    25.9300  25.9300  26.4931  26.4931  26.7993  26.7993  27.0082  27.0082
    27.2221  27.2221  27.8376  27.8376  27.9262  27.9262  28.1023  28.1023
    28.2376  28.2376  28.5086  28.5086  28.8310  28.8310  28.9343  28.9343
    29.2154  29.2154  29.4117  29.4117  29.6200  29.6200  29.7405  29.7405
    30.1856  30.1856  30.2693  30.2693  30.5814  30.5814  30.7423  30.7423
    31.2611  31.2611  31.3810  31.3810  32.2094  32.2094  32.5349  32.5349
    33.1048  33.1048  33.2446  33.2446  39.7339  39.7339  39.9127  39.9127
    42.3007  42.3007  42.3292  42.3292  44.0326  44.0326  44.7959  44.7959
    45.0599  45.0599  45.9203  45.9203  46.9391  46.9391  46.9419  46.9419
    48.0805  48.0805  48.7797  48.7797  49.0664  49.0664  49.8894  49.8894
    50.4220  50.4220  51.1359  51.1359  52.2307  52.2307  53.1111  53.1111
    54.0136  54.0136  54.3117  54.3117  55.5287  55.5287  55.9673  55.9673
    56.2305  56.2305  56.5229  56.5229  57.2804  57.2804  58.3365  58.3365
    59.0462  59.0462  59.1905  59.1905  60.1245  60.1245  60.2147  60.2147
    60.5464  60.5464  60.8581  60.8581  61.6137  61.6138  61.9064  61.9064
    61.9674  61.9674  62.6106  62.6107  62.9739  62.9739  63.3154  63.3157
    63.7880  63.7881  64.1316  64.1317  64.5761  64.5763  64.9804  64.9833
    65.0650

     the Fermi energy is    57.7956 ev

!    total energy              =   -5388.12424347 Ry
     Harris-Foulkes estimate   =   -5388.12424849 Ry
     estimated scf accuracy    <       0.00000822 Ry

     The total energy is the sum of the following terms:

     one-electron contribution =    -379.05321044 Ry
     hartree contribution      =     686.79592330 Ry
     xc contribution           =    -474.84491954 Ry
     ewald contribution        =   -5220.52736585 Ry
     smearing contrib. (-TS)   =      -0.49467095 Ry

     convergence has been achieved in  10 iterations

     Forces acting on atoms (Ry/au):

     atom    1 type  1   force =     0.99587179   -1.13560397   -1.46156356
     atom    2 type  1   force =    -0.99587179   -1.13560397    1.46156356
     atom    3 type  1   force =     0.99587179    1.13560397   -1.46156356
     atom    4 type  1   force =    -1.74577328   -0.65933191    0.00000000
     atom    5 type  1   force =    -0.99587179   -1.13560397   -1.46156356
     atom    6 type  1   force =     0.99587179   -1.13560397    1.46156356
     atom    7 type  1   force =     1.74577328   -0.65933191    0.00000000
     atom    8 type  1   force =    -0.99587179    1.13560397   -1.46156356
     atom    9 type  1   force =     0.99587179    1.13560397    1.46156356
     atom   10 type  1   force =     1.74577328    0.65933191    0.00000000
     atom   11 type  1   force =    -0.99587179    1.13560397    1.46156356
     atom   12 type  1   force =    -1.74577328    0.65933191    0.00000000
     atom   13 type  2   force =     0.00000000    0.00000000    0.00000000
     atom   14 type  2   force =     0.00000000    0.00000000    0.00000000
     atom   15 type  2   force =     0.00000000    0.00000000    0.00000000
     atom   16 type  2   force =     0.00000000    0.00000000    0.00000000

     Total force =     7.019257     Total SCF correction =     0.000000


     entering subroutine stress ...

          total   stress  (Ry/bohr**3)                   (kbar)     P=12644.76
   0.08657065   0.00000000   0.00000000      12734.98      0.00      0.00
   0.00000000   0.08595090   0.00000000          0.00  12643.81      0.00
   0.00000000   0.00000000   0.08535044          0.00      0.00  12555.48


     The maximum number of steps has been reached.

     End of BFGS Geometry Optimization
Begin final coordinates
     new unit-cell volume =   1116.94538 a.u.^3 (   165.51423 Ang^3 )

CELL_PARAMETERS (alat=  8.80076499)
   1.000000000   0.000000000   0.000000000
   0.000000000   1.083771140   0.000000000
   0.000000000   0.000000000   1.511934873

ATOMIC_POSITIONS (crystal)
Fe       0.347294000   0.168636000   0.922478000
Fe       0.152706000   0.668636000   0.577522000
Fe       0.847294000   0.331364000   0.422478000
Fe       0.339664000   0.450209000   0.250000000
Fe       0.152706000   0.668636000   0.922478000
Fe       0.347294000   0.168636000   0.577522000
Fe       0.160336000   0.950209000   0.250000000
Fe       0.652706000   0.831364000   0.422478000
Fe       0.847294000   0.331364000   0.077522000
Fe       0.660336000   0.549791000   0.750000000
Fe       0.652706000   0.831364000   0.077522000
Fe       0.839664000   0.049791000   0.750000000
C        0.000000000   0.000000000   0.000000000
C        0.500000000   0.500000000   0.000000000
C        0.500000000   0.500000000   0.500000000
C        0.000000000   0.000000000   0.500000000
End final coordinates



     A final scf calculation at the relaxed structure.
     The G-vectors are recalculated for the final unit cell
     Results may differ from those at the preceding step.
 
     Parallelization info
     --------------------
     sticks:   dense  smooth     PW     G-vecs:    dense   smooth      PW
     Min         269     269     78                 9541     9541    1486
     Max         270     270     79                 9544     9544    1487
     Sum        1077    1077    315                38169    38169    5947
 


     bravais-lattice index     =            0
     lattice parameter (alat)  =       8.8008  a.u.
     unit-cell volume          =    1116.9454 (a.u.)^3
     number of atoms/cell      =           16
     number of atomic types    =            2
     number of electrons       =       348.00
     number of Kohn-Sham states=          209
     kinetic-energy cutoff     =      40.0000  Ry
     charge density cutoff     =     160.0000  Ry
     convergence threshold     =      1.0E-04
     mixing beta               =       0.7000
     number of iterations used =            8  plain     mixing
     Exchange-correlation      = SLA-PZ-NOGX-NOGC ( 1 1 0 0 0)
     EXX-fraction              =        0.00

     celldm(1)=   8.800765  celldm(2)=   0.000000  celldm(3)=   0.000000
     celldm(4)=   0.000000  celldm(5)=   0.000000  celldm(6)=   0.000000

     crystal axes: (cart. coord. in units of alat)
               a(1) = (   1.000000   0.000000   0.000000 )  
               a(2) = (   0.000000   1.083771   0.000000 )  
               a(3) = (   0.000000   0.000000   1.511935 )  

     reciprocal axes: (cart. coord. in units 2 pi/alat)
               b(1) = (  1.000000  0.000000  0.000000 )  
               b(2) = (  0.000000  0.922704  0.000000 )  
               b(3) = (  0.000000  0.000000  0.661404 )  


     PseudoPot. # 1 for Yb read from file:
     /home/jld5415/pp.La/Yb.UPF
     MD5 check sum: 3e859b81cc28c53ec6aa3a2e888efcdf
     Pseudo is Norm-conserving, Zval = 24.0
     Generated in analytical, separable form
     Using radial grid of 1269 points,  6 beta functions with: 
                l(1) =   0
                l(2) =   0
                l(3) =   1
                l(4) =   1
                l(5) =   2
                l(6) =   3

     PseudoPot. # 2 for Pm read from file:
     /home/jld5415/pp.La/Pm.UPF
     MD5 check sum: 0061344aafc48faba5d75831754de21b
     Pseudo is Norm-conserving, Zval = 15.0
     Generated in analytical, separable form
     Using radial grid of 1259 points,  6 beta functions with: 
                l(1) =   0
                l(2) =   0
                l(3) =   1
                l(4) =   1
                l(5) =   2
                l(6) =   3

     atomic species   valence    mass     pseudopotential
        Fe            24.00    55.84500     Yb( 1.00)
        C             15.00    12.01070     Pm( 1.00)

      8 Sym. Ops., with inversion, found ( 6 have fractional translation)



   Cartesian axes

     site n.     atom                  positions (alat units)
         1           Fe  tau(   1) = (   0.3472940   0.1827628   1.3947267  )
         2           Fe  tau(   2) = (   0.1527060   0.7246484   0.8731757  )
         3           Fe  tau(   3) = (   0.8472940   0.3591227   0.6387592  )
         4           Fe  tau(   4) = (   0.3396640   0.4879235   0.3779837  )
         5           Fe  tau(   5) = (   0.1527060   0.7246484   1.3947267  )
         6           Fe  tau(   6) = (   0.3472940   0.1827628   0.8731757  )
         7           Fe  tau(   7) = (   0.1603360   1.0298091   0.3779837  )
         8           Fe  tau(   8) = (   0.6527060   0.9010083   0.6387592  )
         9           Fe  tau(   9) = (   0.8472940   0.3591227   0.1172082  )
        10           Fe  tau(  10) = (   0.6603360   0.5958476   1.1339512  )
        11           Fe  tau(  11) = (   0.6527060   0.9010083   0.1172082  )
        12           Fe  tau(  12) = (   0.8396640   0.0539620   1.1339512  )
        13           C   tau(  13) = (   0.0000000   0.0000000   0.0000000  )
        14           C   tau(  14) = (   0.5000000   0.5418856   0.0000000  )
        15           C   tau(  15) = (   0.5000000   0.5418856   0.7559674  )
        16           C   tau(  16) = (   0.0000000   0.0000000   0.7559674  )

     number of k points=    12  gaussian smearing, width (Ry)=  0.1000
                       cart. coord. in units 2pi/alat
        k(    1) = (   0.0000000   0.0000000   0.0000000), wk =   0.0833333
        k(    2) = (   0.0000000   0.0000000   0.1653510), wk =   0.1666667
        k(    3) = (   0.0000000   0.0000000  -0.3307021), wk =   0.0833333
        k(    4) = (   0.0000000   0.3075680   0.0000000), wk =   0.1666667
        k(    5) = (   0.0000000   0.3075680   0.1653510), wk =   0.3333333
        k(    6) = (   0.0000000   0.3075680  -0.3307021), wk =   0.1666667
        k(    7) = (  -0.5000000   0.0000000   0.0000000), wk =   0.0833333
        k(    8) = (  -0.5000000   0.0000000   0.1653510), wk =   0.1666667
        k(    9) = (  -0.5000000   0.0000000  -0.3307021), wk =   0.0833333
        k(   10) = (  -0.5000000   0.3075680   0.0000000), wk =   0.1666667
        k(   11) = (  -0.5000000   0.3075680   0.1653510), wk =   0.3333333
        k(   12) = (  -0.5000000   0.3075680  -0.3307021), wk =   0.1666667

     Dense  grid:    38169 G-vectors     FFT dimensions: (  36,  40,  54)

     Largest allocated arrays     est. size (Mb)     dimensions
        Kohn-Sham Wavefunctions         3.86 Mb     (   1211,  209)
        NL pseudopotentials             5.91 Mb     (   1211,  320)
        Each V/rho on FFT grid          0.31 Mb     (  20160)
        Each G-vector array             0.07 Mb     (   9543)
        G-vector shells                 0.03 Mb     (   3548)
     Largest temporary arrays     est. size (Mb)     dimensions
        Each subspace H/S matrix        0.67 Mb     ( 209, 209)
        Each <psi_i|beta_j> matrix      1.02 Mb     (    320,  209)
        Arrays for rho mixing           2.46 Mb     (  20160,   8)

     Initial potential from superposition of free atoms

     Starting from uniform charge
     Starting wfc are    0 randomized atomic wfcs

     Writing output data file Prototype-La-oP16-Fe3C.save

     total cpu time spent up to now is      846.3 secs

     Self-consistent Calculation

     iteration #  1     ecut=    40.00 Ry     beta=0.70
     CG style diagonalization
     c_bands: 12 eigenvalues not converged
     c_bands:  7 eigenvalues not converged
     c_bands: 10 eigenvalues not converged
     c_bands: 15 eigenvalues not converged
     c_bands: 15 eigenvalues not converged
     c_bands: 16 eigenvalues not converged
     c_bands: 15 eigenvalues not converged
     c_bands: 10 eigenvalues not converged
     c_bands: 14 eigenvalues not converged
     c_bands:  8 eigenvalues not converged
     c_bands: 12 eigenvalues not converged
     c_bands:  9 eigenvalues not converged
     ethr =  1.00E-06,  avg # of iterations = 67.0

     total cpu time spent up to now is     1597.6 secs

     total energy              =   -5674.87196319 Ry
     Harris-Foulkes estimate   =   -6467.31277536 Ry
     estimated scf accuracy    <    1001.88675105 Ry

     iteration #  2     ecut=    40.00 Ry     beta=0.70
     CG style diagonalization
     ethr =  1.00E-02,  avg # of iterations =  6.8

     total cpu time spent up to now is     1674.2 secs

     total energy              =   -5438.77708525 Ry
     Harris-Foulkes estimate   =   -5481.65439740 Ry
     estimated scf accuracy    <      52.36049754 Ry

     iteration #  3     ecut=    40.00 Ry     beta=0.70
     CG style diagonalization
     ethr =  1.00E-02,  avg # of iterations = 12.7

     total cpu time spent up to now is     1821.3 secs

     total energy              =   -5529.13720502 Ry
     Harris-Foulkes estimate   =   -5541.34758116 Ry
     estimated scf accuracy    <      19.14427353 Ry

     iteration #  4     ecut=    40.00 Ry     beta=0.70
     CG style diagonalization
     ethr =  5.50E-03,  avg # of iterations =  8.1

     total cpu time spent up to now is     1911.8 secs

     total energy              =   -5468.48249635 Ry
     Harris-Foulkes estimate   =   -5490.65727168 Ry
     estimated scf accuracy    <     133.72736781 Ry

     iteration #  5     ecut=    40.00 Ry     beta=0.70
     CG style diagonalization
     ethr =  5.50E-03,  avg # of iterations =  5.5

     total cpu time spent up to now is     1970.5 secs

     total energy              =   -5463.01040517 Ry
     Harris-Foulkes estimate   =   -5473.08745083 Ry
     estimated scf accuracy    <      29.19375702 Ry

     iteration #  6     ecut=    40.00 Ry     beta=0.70
     CG style diagonalization
     ethr =  5.50E-03,  avg # of iterations = 14.1

     total cpu time spent up to now is     2132.8 secs

     total energy              =   -5474.37246409 Ry
     Harris-Foulkes estimate   =   -5499.45286267 Ry
     estimated scf accuracy    <     130.25261987 Ry

     iteration #  7     ecut=    40.00 Ry     beta=0.70
     CG style diagonalization
     ethr =  5.50E-03,  avg # of iterations =  7.1

     total cpu time spent up to now is     2213.4 secs

     total energy              =   -5469.97546937 Ry
     Harris-Foulkes estimate   =   -5472.88684930 Ry
     estimated scf accuracy    <      27.45239989 Ry

     iteration #  8     ecut=    40.00 Ry     beta=0.70
     CG style diagonalization
     ethr =  5.50E-03,  avg # of iterations = 10.3

     negative rho (up, down):  0.605E-03 0.000E+00

     total cpu time spent up to now is     2333.2 secs

     total energy              =   -5474.45422468 Ry
     Harris-Foulkes estimate   =   -5477.78267999 Ry
     estimated scf accuracy    <      21.50132712 Ry

     iteration #  9     ecut=    40.00 Ry     beta=0.70
     CG style diagonalization
     ethr =  5.50E-03,  avg # of iterations = 11.5

     negative rho (up, down):  0.899E-03 0.000E+00

     total cpu time spent up to now is     2465.5 secs

     total energy              =   -5466.64257130 Ry
     Harris-Foulkes estimate   =   -5470.42889993 Ry
     estimated scf accuracy    <      59.91617084 Ry

     iteration # 10     ecut=    40.00 Ry     beta=0.70
     CG style diagonalization
     ethr =  5.50E-03,  avg # of iterations =  6.2

     negative rho (up, down):  0.981E-03 0.000E+00

     total cpu time spent up to now is     2536.0 secs

     total energy              =   -5462.09510746 Ry
     Harris-Foulkes estimate   =   -5467.26423652 Ry
     estimated scf accuracy    <      73.39925380 Ry

     iteration # 11     ecut=    40.00 Ry     beta=0.70
     CG style diagonalization
     ethr =  5.50E-03,  avg # of iterations =  4.6

     negative rho (up, down):  0.787E-04 0.000E+00

     total cpu time spent up to now is     2588.6 secs

     total energy              =   -5456.93442354 Ry
     Harris-Foulkes estimate   =   -5459.75930444 Ry
     estimated scf accuracy    <      33.07661102 Ry

     iteration # 12     ecut=    40.00 Ry     beta=0.70
     CG style diagonalization
     ethr =  5.50E-03,  avg # of iterations = 10.9

     total cpu time spent up to now is     2714.3 secs

     total energy              =   -5471.62676806 Ry
     Harris-Foulkes estimate   =   -5460.32085168 Ry
     estimated scf accuracy    <      58.92402826 Ry

     iteration # 13     ecut=    40.00 Ry     beta=0.70
     CG style diagonalization
     ethr =  5.50E-03,  avg # of iterations =  6.7

     total cpu time spent up to now is     2793.1 secs

     total energy              =   -5477.56292042 Ry
     Harris-Foulkes estimate   =   -5479.78239649 Ry
     estimated scf accuracy    <      25.62006247 Ry

     iteration # 14     ecut=    40.00 Ry     beta=0.70
     CG style diagonalization
     ethr =  5.50E-03,  avg # of iterations = 21.3

     total cpu time spent up to now is     3043.2 secs

     total energy              =   -5470.15641469 Ry
     Harris-Foulkes estimate   =   -5482.49267374 Ry
     estimated scf accuracy    <      91.88818277 Ry

     iteration # 15     ecut=    40.00 Ry     beta=0.70
     CG style diagonalization
     ethr =  5.50E-03,  avg # of iterations =  6.4

     total cpu time spent up to now is     3119.6 secs

     total energy              =   -5463.84731018 Ry
     Harris-Foulkes estimate   =   -5464.31074048 Ry
     estimated scf accuracy    <      93.32695799 Ry

     iteration # 16     ecut=    40.00 Ry     beta=0.70
     CG style diagonalization
     ethr =  5.50E-03,  avg # of iterations = 12.4

     total cpu time spent up to now is     3266.0 secs

     total energy              =   -5463.65360429 Ry
     Harris-Foulkes estimate   =   -5463.76701345 Ry
     estimated scf accuracy    <       0.88657229 Ry

     iteration # 17     ecut=    40.00 Ry     beta=0.70
     CG style diagonalization
     ethr =  2.55E-04,  avg # of iterations = 16.5

     negative rho (up, down):  0.191E-02 0.000E+00

     total cpu time spent up to now is     3467.3 secs

     total energy              =   -5466.78708857 Ry
     Harris-Foulkes estimate   =   -5466.37022355 Ry
     estimated scf accuracy    <       0.71008625 Ry

     iteration # 18     ecut=    40.00 Ry     beta=0.70
     CG style diagonalization
     ethr =  2.04E-04,  avg # of iterations = 16.8

     negative rho (up, down):  0.116E-01 0.000E+00

     total cpu time spent up to now is     3670.5 secs

     total energy              =   -5457.04156161 Ry
     Harris-Foulkes estimate   =   -5457.31931780 Ry
     estimated scf accuracy    <      37.05697647 Ry

     iteration # 19     ecut=    40.00 Ry     beta=0.70
     CG style diagonalization
     ethr =  2.04E-04,  avg # of iterations = 22.9

     negative rho (up, down):  0.867E-02 0.000E+00

     total cpu time spent up to now is     3940.3 secs

     total energy              =   -5451.19420508 Ry
     Harris-Foulkes estimate   =   -5452.26832682 Ry
     estimated scf accuracy    <      17.91004970 Ry

     iteration # 20     ecut=    40.00 Ry     beta=0.70
     CG style diagonalization
     ethr =  2.04E-04,  avg # of iterations = 25.5

     negative rho (up, down):  0.598E-02 0.000E+00

     total cpu time spent up to now is     4242.1 secs

     total energy              =   -5446.39263759 Ry
     Harris-Foulkes estimate   =   -5447.65831505 Ry
     estimated scf accuracy    <      42.69946437 Ry

     iteration # 21     ecut=    40.00 Ry     beta=0.70
     CG style diagonalization
     ethr =  2.04E-04,  avg # of iterations = 24.7

     negative rho (up, down):  0.807E-02 0.000E+00

     total cpu time spent up to now is     4533.5 secs

     total energy              =   -5453.32381183 Ry
     Harris-Foulkes estimate   =   -5449.74060411 Ry
     estimated scf accuracy    <      64.14581999 Ry

     iteration # 22     ecut=    40.00 Ry     beta=0.70
     CG style diagonalization
     ethr =  2.04E-04,  avg # of iterations = 25.2

     negative rho (up, down):  0.418E-02 0.000E+00

     total cpu time spent up to now is     4832.8 secs

     total energy              =   -5450.14495800 Ry
     Harris-Foulkes estimate   =   -5445.01471958 Ry
     estimated scf accuracy    <      60.53305813 Ry

     iteration # 23     ecut=    40.00 Ry     beta=0.70
     CG style diagonalization
     ethr =  2.04E-04,  avg # of iterations = 24.8

     negative rho (up, down):  0.401E-02 0.000E+00

     total cpu time spent up to now is     5122.3 secs

     total energy              =   -5453.95190659 Ry
     Harris-Foulkes estimate   =   -5454.07614643 Ry
     estimated scf accuracy    <       7.37358446 Ry

     iteration # 24     ecut=    40.00 Ry     beta=0.70
     CG style diagonalization
     ethr =  2.04E-04,  avg # of iterations = 24.7

     total cpu time spent up to now is     5410.2 secs

     total energy              =   -5452.94199469 Ry
     Harris-Foulkes estimate   =   -5452.31578577 Ry
     estimated scf accuracy    <       3.96106018 Ry

     iteration # 25     ecut=    40.00 Ry     beta=0.70
     CG style diagonalization
     ethr =  2.04E-04,  avg # of iterations = 26.5

     total cpu time spent up to now is     5719.1 secs

     total energy              =   -5452.91372360 Ry
     Harris-Foulkes estimate   =   -5452.65048740 Ry
     estimated scf accuracy    <       6.46824331 Ry

     iteration # 26     ecut=    40.00 Ry     beta=0.70
     CG style diagonalization
     ethr =  2.04E-04,  avg # of iterations = 23.8

     total cpu time spent up to now is     5996.7 secs

     total energy              =   -5454.70931954 Ry
     Harris-Foulkes estimate   =   -5453.62707393 Ry
     estimated scf accuracy    <      69.86436884 Ry

     iteration # 27     ecut=    40.00 Ry     beta=0.70
     CG style diagonalization
     ethr =  2.04E-04,  avg # of iterations = 24.6

     total cpu time spent up to now is     6247.1 secs

     total energy              =   -5452.40136874 Ry
     Harris-Foulkes estimate   =   -5452.17378595 Ry
     estimated scf accuracy    <      10.76156219 Ry

     iteration # 28     ecut=    40.00 Ry     beta=0.70
     CG style diagonalization
     ethr =  2.04E-04,  avg # of iterations = 25.6

     total cpu time spent up to now is     6502.5 secs

     total energy              =   -5453.94215208 Ry
     Harris-Foulkes estimate   =   -5452.90653487 Ry
     estimated scf accuracy    <      54.57640112 Ry

     iteration # 29     ecut=    40.00 Ry     beta=0.70
     CG style diagonalization
     c_bands:  1 eigenvalues not converged
     ethr =  2.04E-04,  avg # of iterations = 16.5

     total cpu time spent up to now is     6680.9 secs

     total energy              =   -5453.94668174 Ry
     Harris-Foulkes estimate   =   -5453.41175084 Ry
     estimated scf accuracy    <      37.97943191 Ry

     iteration # 30     ecut=    40.00 Ry     beta=0.70
     CG style diagonalization
     ethr =  2.04E-04,  avg # of iterations = 17.5

     total cpu time spent up to now is     6863.1 secs

     total energy              =   -5449.91149260 Ry
     Harris-Foulkes estimate   =   -5453.04611881 Ry
     estimated scf accuracy    <     478.38427475 Ry

     iteration # 31     ecut=    40.00 Ry     beta=0.70
     CG style diagonalization
     ethr =  2.04E-04,  avg # of iterations = 23.7

     total cpu time spent up to now is     7104.5 secs

     total energy              =   -5457.24896520 Ry
     Harris-Foulkes estimate   =   -5453.93737638 Ry
     estimated scf accuracy    <     410.10534984 Ry

     iteration # 32     ecut=    40.00 Ry     beta=0.70
     CG style diagonalization
     ethr =  2.04E-04,  avg # of iterations = 23.2

     total cpu time spent up to now is     7342.9 secs

     total energy              =   -5452.46924831 Ry
     Harris-Foulkes estimate   =   -5452.39432394 Ry
     estimated scf accuracy    <      55.91240905 Ry

     iteration # 33     ecut=    40.00 Ry     beta=0.70
     CG style diagonalization
     c_bands:  1 eigenvalues not converged
     ethr =  2.04E-04,  avg # of iterations = 23.2

     total cpu time spent up to now is     7580.7 secs

     total energy              =   -5452.63034044 Ry
     Harris-Foulkes estimate   =   -5452.48248184 Ry
     estimated scf accuracy    <      32.77311670 Ry

     iteration # 34     ecut=    40.00 Ry     beta=0.70
     CG style diagonalization
     ethr =  2.04E-04,  avg # of iterations = 23.8

     total cpu time spent up to now is     7838.7 secs

     total energy              =   -5452.38108096 Ry
     Harris-Foulkes estimate   =   -5452.19632981 Ry
     estimated scf accuracy    <       8.72170103 Ry

     iteration # 35     ecut=    40.00 Ry     beta=0.70
     CG style diagonalization
     c_bands:  1 eigenvalues not converged
     ethr =  2.04E-04,  avg # of iterations = 24.9

     total cpu time spent up to now is     8115.6 secs

     total energy              =   -5452.93866660 Ry
     Harris-Foulkes estimate   =   -5453.00823810 Ry
     estimated scf accuracy    <       5.48682371 Ry

     iteration # 36     ecut=    40.00 Ry     beta=0.70
     CG style diagonalization
     ethr =  2.04E-04,  avg # of iterations = 24.5

     total cpu time spent up to now is     8388.8 secs

     total energy              =   -5452.02200987 Ry
     Harris-Foulkes estimate   =   -5452.74398605 Ry
     estimated scf accuracy    <      72.74478212 Ry

     iteration # 37     ecut=    40.00 Ry     beta=0.70
     CG style diagonalization
     c_bands:  1 eigenvalues not converged
     ethr =  2.04E-04,  avg # of iterations = 25.6

     total cpu time spent up to now is     8673.0 secs

     total energy              =   -5451.83820600 Ry
     Harris-Foulkes estimate   =   -5451.86993331 Ry
     estimated scf accuracy    <       4.41754385 Ry

     iteration # 38     ecut=    40.00 Ry     beta=0.70
     CG style diagonalization
     ethr =  2.04E-04,  avg # of iterations = 25.4

     total cpu time spent up to now is     8955.3 secs

     total energy              =   -5451.77110139 Ry
     Harris-Foulkes estimate   =   -5451.79977873 Ry
     estimated scf accuracy    <      18.91516321 Ry

     iteration # 39     ecut=    40.00 Ry     beta=0.70
     CG style diagonalization
     ethr =  2.04E-04,  avg # of iterations = 25.5

     total cpu time spent up to now is     9236.6 secs

     total energy              =   -5451.70169478 Ry
     Harris-Foulkes estimate   =   -5451.66485865 Ry
     estimated scf accuracy    <       5.31810260 Ry

     iteration # 40     ecut=    40.00 Ry     beta=0.70
     CG style diagonalization
     c_bands:  1 eigenvalues not converged
     ethr =  2.04E-04,  avg # of iterations = 20.1

     total cpu time spent up to now is     9461.2 secs

     total energy              =   -5451.96080078 Ry
     Harris-Foulkes estimate   =   -5451.80344406 Ry
     estimated scf accuracy    <     121.87603767 Ry

     iteration # 41     ecut=    40.00 Ry     beta=0.70
     CG style diagonalization
     c_bands:  1 eigenvalues not converged
     ethr =  2.04E-04,  avg # of iterations = 15.9

     total cpu time spent up to now is     9637.9 secs

     total energy              =   -5451.46092391 Ry
     Harris-Foulkes estimate   =   -5451.67448977 Ry
     estimated scf accuracy    <     672.59757854 Ry

     iteration # 42     ecut=    40.00 Ry     beta=0.70
     CG style diagonalization
     ethr =  2.04E-04,  avg # of iterations = 16.4

     total cpu time spent up to now is     9821.6 secs

     total energy              =   -5451.75229830 Ry
     Harris-Foulkes estimate   =   -5451.74641681 Ry
     estimated scf accuracy    <      32.87830622 Ry

     iteration # 43     ecut=    40.00 Ry     beta=0.70
     CG style diagonalization
     ethr =  2.04E-04,  avg # of iterations = 22.8

     total cpu time spent up to now is    10074.4 secs

     total energy              =   -5451.77302166 Ry
     Harris-Foulkes estimate   =   -5451.77868426 Ry
     estimated scf accuracy    <      12.94182957 Ry

     iteration # 44     ecut=    40.00 Ry     beta=0.70
     CG style diagonalization
     ethr =  2.04E-04,  avg # of iterations = 24.8

     total cpu time spent up to now is    10351.7 secs

     total energy              =   -5451.78764464 Ry
     Harris-Foulkes estimate   =   -5451.76543284 Ry
     estimated scf accuracy    <       6.13166943 Ry

     iteration # 45     ecut=    40.00 Ry     beta=0.70
     CG style diagonalization
     c_bands:  1 eigenvalues not converged
     ethr =  2.04E-04,  avg # of iterations = 26.5

     total cpu time spent up to now is    10646.8 secs

     total energy              =   -5451.88909151 Ry
     Harris-Foulkes estimate   =   -5451.85660717 Ry
     estimated scf accuracy    <       6.36919140 Ry

     iteration # 46     ecut=    40.00 Ry     beta=0.70
     CG style diagonalization
     ethr =  2.04E-04,  avg # of iterations = 24.0

     total cpu time spent up to now is    10916.5 secs

     total energy              =   -5451.73582041 Ry
     Harris-Foulkes estimate   =   -5451.73663211 Ry
     estimated scf accuracy    <       9.38633040 Ry

     iteration # 47     ecut=    40.00 Ry     beta=0.70
     CG style diagonalization
