
     Program PWSCF v.5.0.2 starts on 22Mar2018 at 22:45:42 

     This program is part of the open-source Quantum ESPRESSO suite
     for quantum simulation of materials; please cite
         "P. Giannozzi et al., J. Phys.:Condens. Matter 21 395502 (2009);
          URL http://www.quantum-espresso.org", 
     in publications or presentations arising from this work. More details at
     http://www.quantum-espresso.org/quote.php

     Parallel version (MPI), running on     4 processors
     R & G space division:  proc/nbgrp/npool/nimage =       4

     Current dimensions of program PWSCF are:
     Max number of different atomic species (ntypx) = 10
     Max number of k-points (npk) =  40000
     Max angular momentum in pseudopotentials (lmaxx) =  3
     Waiting for input...
     Reading input from standard input

     Subspace diagonalization in iterative solution of the eigenvalue problem:
     a serial algorithm will be used

 
     Parallelization info
     --------------------
     sticks:   dense  smooth     PW     G-vecs:    dense   smooth      PW
     Min         164     164     48                 3132     3132     524
     Max         165     165     49                 3135     3135     527
     Sum         657     657    193                12533    12533    2103
 


     bravais-lattice index     =            0
     lattice parameter (alat)  =       7.1317  a.u.
     unit-cell volume          =     362.7211 (a.u.)^3
     number of atoms/cell      =            4
     number of atomic types    =            2
     number of electrons       =        82.00
     number of Kohn-Sham states=           49
     kinetic-energy cutoff     =      40.0000  Ry
     charge density cutoff     =     160.0000  Ry
     convergence threshold     =      1.0E-04
     mixing beta               =       0.7000
     number of iterations used =            8  plain     mixing
     Exchange-correlation      = SLA-PZ-NOGX-NOGC ( 1 1 0 0 0)
     EXX-fraction              =        0.00
     nstep                     =           50


     celldm(1)=   7.131665  celldm(2)=   0.000000  celldm(3)=   0.000000
     celldm(4)=   0.000000  celldm(5)=   0.000000  celldm(6)=   0.000000

     crystal axes: (cart. coord. in units of alat)
               a(1) = (   1.000000   0.000000   0.000000 )  
               a(2) = (   0.000000   1.000000   0.000000 )  
               a(3) = (   0.000000   0.000000   1.000000 )  

     reciprocal axes: (cart. coord. in units 2 pi/alat)
               b(1) = (  1.000000  0.000000  0.000000 )  
               b(2) = (  0.000000  1.000000  0.000000 )  
               b(3) = (  0.000000  0.000000  1.000000 )  


     PseudoPot. # 1 for Er read from file:
     /home/cwx6513/pp.La/Er.UPF
     MD5 check sum: e152ae21b84514339d8526f066caf99b
     Pseudo is Norm-conserving, Zval = 22.0
     Generated in analytical, separable form
     Using radial grid of 1267 points,  6 beta functions with: 
                l(1) =   0
                l(2) =   0
                l(3) =   1
                l(4) =   1
                l(5) =   2
                l(6) =   3

     PseudoPot. # 2 for Sm read from file:
     /home/cwx6513/pp.La/Sm.UPF
     MD5 check sum: 5079e8b144a06bfcdbc14fb02b96ab09
     Pseudo is Norm-conserving, Zval = 16.0
     Generated in analytical, separable form
     Using radial grid of 1259 points,  6 beta functions with: 
                l(1) =   0
                l(2) =   0
                l(3) =   1
                l(4) =   1
                l(5) =   2
                l(6) =   3

     atomic species   valence    mass     pseudopotential
        Cu            22.00    63.54600     Er( 1.00)
        Au            16.00   196.96600     Sm( 1.00)

     48 Sym. Ops., with inversion, found



   Cartesian axes

     site n.     atom                  positions (alat units)
         1           Cu  tau(   1) = (   0.0000000   0.5000000   0.5000000  )
         2           Cu  tau(   2) = (   0.5000000   0.5000000   0.0000000  )
         3           Cu  tau(   3) = (   0.5000000   0.0000000   0.5000000  )
         4           Au  tau(   4) = (   0.0000000   0.0000000   0.0000000  )

     number of k points=   100  gaussian smearing, width (Ry)=  0.1000

     Number of k-points >= 100: set verbosity='high' to print them.

     Dense  grid:    12533 G-vectors     FFT dimensions: (  30,  30,  30)

     Largest allocated arrays     est. size (Mb)     dimensions
        Kohn-Sham Wavefunctions         0.30 Mb     (    400,   49)
        NL pseudopotentials             0.49 Mb     (    400,   80)
        Each V/rho on FFT grid          0.11 Mb     (   7200)
        Each G-vector array             0.02 Mb     (   3134)
        G-vector shells                 0.02 Mb     (   3134)
     Largest temporary arrays     est. size (Mb)     dimensions
        Each subspace H/S matrix        0.04 Mb     (  49,  49)
        Each <psi_i|beta_j> matrix      0.06 Mb     (     80,   49)
        Arrays for rho mixing           0.88 Mb     (   7200,   8)

     Initial potential from superposition of free atoms

     Starting from uniform charge
     Starting wfc are    0 randomized atomic wfcs

     total cpu time spent up to now is        2.0 secs

     Self-consistent Calculation

     iteration #  1     ecut=    40.00 Ry     beta=0.70
     CG style diagonalization
     c_bands:  2 eigenvalues not converged
     c_bands:  1 eigenvalues not converged
     c_bands:  1 eigenvalues not converged
     c_bands:  2 eigenvalues not converged
     c_bands:  1 eigenvalues not converged
     c_bands:  1 eigenvalues not converged
     c_bands:  1 eigenvalues not converged
     c_bands:  1 eigenvalues not converged
     c_bands:  1 eigenvalues not converged
     c_bands:  1 eigenvalues not converged
     c_bands:  1 eigenvalues not converged
     c_bands:  2 eigenvalues not converged
     c_bands:  1 eigenvalues not converged
     c_bands:  3 eigenvalues not converged
     c_bands:  1 eigenvalues not converged
     c_bands:  1 eigenvalues not converged
     c_bands:  2 eigenvalues not converged
     c_bands:  1 eigenvalues not converged
     c_bands:  2 eigenvalues not converged
     c_bands:  2 eigenvalues not converged
     c_bands:  1 eigenvalues not converged
     c_bands:  2 eigenvalues not converged
     c_bands:  1 eigenvalues not converged
     c_bands:  2 eigenvalues not converged
     c_bands:  3 eigenvalues not converged
     c_bands:  4 eigenvalues not converged
     c_bands:  1 eigenvalues not converged
     c_bands:  1 eigenvalues not converged
     c_bands:  2 eigenvalues not converged
     c_bands:  2 eigenvalues not converged
     ethr =  1.00E-02,  avg # of iterations = 13.0

     total cpu time spent up to now is       27.0 secs

     total energy              =    -872.40262955 Ry
     Harris-Foulkes estimate   =   -1362.03949973 Ry
     estimated scf accuracy    <     606.78229401 Ry

     iteration #  2     ecut=    40.00 Ry     beta=0.70
     CG style diagonalization
     c_bands:  1 eigenvalues not converged
     c_bands:  1 eigenvalues not converged
     c_bands:  1 eigenvalues not converged
     c_bands:  1 eigenvalues not converged
     c_bands:  1 eigenvalues not converged
     c_bands:  1 eigenvalues not converged
     c_bands:  1 eigenvalues not converged
     c_bands:  1 eigenvalues not converged
     c_bands:  1 eigenvalues not converged
     c_bands:  1 eigenvalues not converged
     c_bands:  1 eigenvalues not converged
     c_bands:  1 eigenvalues not converged
     c_bands:  2 eigenvalues not converged
     c_bands:  1 eigenvalues not converged
     c_bands:  1 eigenvalues not converged
     c_bands:  1 eigenvalues not converged
     c_bands:  1 eigenvalues not converged
     c_bands:  1 eigenvalues not converged
     c_bands:  1 eigenvalues not converged
     c_bands:  1 eigenvalues not converged
     c_bands:  1 eigenvalues not converged
     c_bands:  1 eigenvalues not converged
     c_bands:  1 eigenvalues not converged
     c_bands:  1 eigenvalues not converged
     c_bands:  1 eigenvalues not converged
     c_bands:  1 eigenvalues not converged
     ethr =  1.00E-02,  avg # of iterations = 12.9

     total cpu time spent up to now is       51.0 secs

     total energy              =    -938.65930045 Ry
     Harris-Foulkes estimate   =   -1329.97574047 Ry
     estimated scf accuracy    <     760.95738073 Ry

     iteration #  3     ecut=    40.00 Ry     beta=0.70
     CG style diagonalization
     c_bands:  1 eigenvalues not converged
     c_bands:  1 eigenvalues not converged
     c_bands:  1 eigenvalues not converged
     c_bands:  1 eigenvalues not converged
     c_bands:  1 eigenvalues not converged
     c_bands:  1 eigenvalues not converged
     ethr =  1.00E-02,  avg # of iterations = 10.5

     total cpu time spent up to now is       70.7 secs

     total energy              =   -1126.87212182 Ry
     Harris-Foulkes estimate   =   -1158.09875644 Ry
     estimated scf accuracy    <      65.77051344 Ry

     iteration #  4     ecut=    40.00 Ry     beta=0.70
     CG style diagonalization
     ethr =  1.00E-02,  avg # of iterations =  4.7

     total cpu time spent up to now is       79.5 secs

     total energy              =   -1136.56508667 Ry
     Harris-Foulkes estimate   =   -1137.67683481 Ry
     estimated scf accuracy    <       2.48747639 Ry

     iteration #  5     ecut=    40.00 Ry     beta=0.70
     CG style diagonalization
     ethr =  3.03E-03,  avg # of iterations =  3.5

     total cpu time spent up to now is       86.0 secs

     total energy              =   -1136.59078712 Ry
     Harris-Foulkes estimate   =   -1136.89776378 Ry
     estimated scf accuracy    <       0.52032172 Ry

     iteration #  6     ecut=    40.00 Ry     beta=0.70
     CG style diagonalization
     ethr =  6.35E-04,  avg # of iterations =  3.9

     total cpu time spent up to now is       95.0 secs

     total energy              =   -1136.72602981 Ry
     Harris-Foulkes estimate   =   -1136.76028734 Ry
     estimated scf accuracy    <       0.06114829 Ry

     iteration #  7     ecut=    40.00 Ry     beta=0.70
     CG style diagonalization
     c_bands:  1 eigenvalues not converged
     c_bands:  1 eigenvalues not converged
     c_bands:  1 eigenvalues not converged
     c_bands:  1 eigenvalues not converged
     ethr =  7.46E-05,  avg # of iterations =  4.0

     total cpu time spent up to now is      102.1 secs

     total energy              =   -1136.74299569 Ry
     Harris-Foulkes estimate   =   -1136.74320220 Ry
     estimated scf accuracy    <       0.00040355 Ry

     iteration #  8     ecut=    40.00 Ry     beta=0.70
     CG style diagonalization
     c_bands:  1 eigenvalues not converged
     c_bands:  1 eigenvalues not converged
     c_bands:  1 eigenvalues not converged
     c_bands:  1 eigenvalues not converged
     c_bands:  1 eigenvalues not converged
     c_bands:  1 eigenvalues not converged
     c_bands:  2 eigenvalues not converged
     c_bands:  1 eigenvalues not converged
     c_bands:  1 eigenvalues not converged
     c_bands:  1 eigenvalues not converged
     c_bands:  1 eigenvalues not converged
     c_bands:  1 eigenvalues not converged
     c_bands:  1 eigenvalues not converged
     c_bands:  1 eigenvalues not converged
     c_bands:  1 eigenvalues not converged
     c_bands:  1 eigenvalues not converged
     c_bands:  1 eigenvalues not converged
     ethr =  4.92E-07,  avg # of iterations =  5.9

     total cpu time spent up to now is      112.7 secs

     total energy              =   -1136.74380334 Ry
     Harris-Foulkes estimate   =   -1136.74409056 Ry
     estimated scf accuracy    <       0.00060250 Ry

     iteration #  9     ecut=    40.00 Ry     beta=0.70
     CG style diagonalization
     c_bands:  1 eigenvalues not converged
     c_bands:  1 eigenvalues not converged
     ethr =  4.92E-07,  avg # of iterations =  3.4

     total cpu time spent up to now is      118.5 secs

     End of self-consistent calculation

     Number of k-points >= 100: set verbosity='high' to print the bands.

     the Fermi energy is    43.9895 ev

!    total energy              =   -1136.74389702 Ry
     Harris-Foulkes estimate   =   -1136.74390240 Ry
     estimated scf accuracy    <       0.00000713 Ry

     The total energy is the sum of the following terms:

     one-electron contribution =     -76.70494310 Ry
     hartree contribution      =     132.70051179 Ry
     xc contribution           =    -103.40725574 Ry
     ewald contribution        =   -1089.23123134 Ry
     smearing contrib. (-TS)   =      -0.10097864 Ry

     convergence has been achieved in   9 iterations

     Forces acting on atoms (Ry/au):

     atom    1 type  1   force =     0.00000000    0.00000000    0.00000000
     atom    2 type  1   force =     0.00000000    0.00000000    0.00000000
     atom    3 type  1   force =     0.00000000    0.00000000    0.00000000
     atom    4 type  2   force =     0.00000000    0.00000000    0.00000000

     Total force =     0.000000     Total SCF correction =     0.000000


     entering subroutine stress ...

          total   stress  (Ry/bohr**3)                   (kbar)     P= 2895.52
   0.01968337   0.00000000   0.00000000       2895.52      0.00      0.00
   0.00000000   0.01968337   0.00000000          0.00   2895.52      0.00
   0.00000000   0.00000000   0.01968337          0.00      0.00   2895.52


     BFGS Geometry Optimization

     number of scf cycles    =   1
     number of bfgs steps    =   0

     enthalpy new            =   -1136.7438970234 Ry

     new trust radius        =       0.5000000000 bohr
     new conv_thr            =       0.0001000000 Ry

     new unit-cell volume =    525.13076 a.u.^3 (    77.81635 Ang^3 )

CELL_PARAMETERS (alat=  7.13166486)
   1.131266415   0.000000000   0.000000000
   0.000000000   1.131266415   0.000000000
   0.000000000   0.000000000   1.131266415

ATOMIC_POSITIONS (crystal)
Cu       0.000000000   0.500000000   0.500000000
Cu       0.500000000   0.500000000   0.000000000
Cu       0.500000000   0.000000000   0.500000000
Au       0.000000000   0.000000000   0.000000000



     Writing output data file Prototype-La-cP4-Cu3Au.save
     NEW-OLD atomic charge density approx. for the potential
     NEW k-points: (use verbosity='high' to print them)

     total cpu time spent up to now is      121.4 secs

     Self-consistent Calculation

     iteration #  1     ecut=    40.00 Ry     beta=0.70
     CG style diagonalization
     c_bands:  1 eigenvalues not converged
     c_bands:  1 eigenvalues not converged
     c_bands:  1 eigenvalues not converged
     c_bands:  1 eigenvalues not converged
     c_bands:  1 eigenvalues not converged
     c_bands:  1 eigenvalues not converged
     c_bands:  2 eigenvalues not converged
     c_bands:  1 eigenvalues not converged
     c_bands:  1 eigenvalues not converged
     c_bands:  1 eigenvalues not converged
     c_bands:  1 eigenvalues not converged
     c_bands:  1 eigenvalues not converged
     c_bands:  1 eigenvalues not converged
     c_bands:  1 eigenvalues not converged
     c_bands:  1 eigenvalues not converged
     c_bands:  1 eigenvalues not converged
     c_bands:  1 eigenvalues not converged
     c_bands:  2 eigenvalues not converged
     ethr =  1.00E-06,  avg # of iterations = 20.9

     total cpu time spent up to now is      157.0 secs

     total energy              =   -1126.21602523 Ry
     Harris-Foulkes estimate   =   -1153.43832069 Ry
     estimated scf accuracy    <      34.47348360 Ry

     iteration #  2     ecut=    40.00 Ry     beta=0.70
     CG style diagonalization
     ethr =  1.00E-02,  avg # of iterations =  4.3

     total cpu time spent up to now is      164.4 secs

     total energy              =   -1134.25917309 Ry
     Harris-Foulkes estimate   =   -1139.98227621 Ry
     estimated scf accuracy    <       8.73087915 Ry

     iteration #  3     ecut=    40.00 Ry     beta=0.70
     CG style diagonalization
     ethr =  1.00E-02,  avg # of iterations =  3.6

     total cpu time spent up to now is      171.2 secs

     total energy              =   -1136.62776486 Ry
     Harris-Foulkes estimate   =   -1138.77357980 Ry
     estimated scf accuracy    <       5.00938984 Ry

     iteration #  4     ecut=    40.00 Ry     beta=0.70
     CG style diagonalization
     ethr =  6.11E-03,  avg # of iterations =  3.2

     total cpu time spent up to now is      176.6 secs

     total energy              =   -1137.42255485 Ry
     Harris-Foulkes estimate   =   -1137.44013733 Ry
     estimated scf accuracy    <       0.05404328 Ry

     iteration #  5     ecut=    40.00 Ry     beta=0.70
     CG style diagonalization
     c_bands:  1 eigenvalues not converged
     c_bands:  1 eigenvalues not converged
     c_bands:  1 eigenvalues not converged
     ethr =  6.59E-05,  avg # of iterations =  4.6

     total cpu time spent up to now is      184.7 secs

     total energy              =   -1137.45258395 Ry
     Harris-Foulkes estimate   =   -1137.46070742 Ry
     estimated scf accuracy    <       0.00992621 Ry

     iteration #  6     ecut=    40.00 Ry     beta=0.70
     CG style diagonalization
     c_bands:  1 eigenvalues not converged
     c_bands:  1 eigenvalues not converged
     c_bands:  1 eigenvalues not converged
     c_bands:  1 eigenvalues not converged
     c_bands:  1 eigenvalues not converged
     c_bands:  1 eigenvalues not converged
     ethr =  1.21E-05,  avg # of iterations =  4.2

     total cpu time spent up to now is      191.9 secs

     total energy              =   -1137.45759158 Ry
     Harris-Foulkes estimate   =   -1137.46208619 Ry
     estimated scf accuracy    <       0.02014644 Ry

     iteration #  7     ecut=    40.00 Ry     beta=0.70
     CG style diagonalization
     ethr =  1.21E-05,  avg # of iterations =  3.1

     total cpu time spent up to now is      197.7 secs

     total energy              =   -1137.45548574 Ry
     Harris-Foulkes estimate   =   -1137.45831252 Ry
     estimated scf accuracy    <       0.00690008 Ry

     iteration #  8     ecut=    40.00 Ry     beta=0.70
     CG style diagonalization
     ethr =  8.41E-06,  avg # of iterations =  3.3

     total cpu time spent up to now is      203.4 secs

     total energy              =   -1137.45653332 Ry
     Harris-Foulkes estimate   =   -1137.45658681 Ry
     estimated scf accuracy    <       0.00014141 Ry

     iteration #  9     ecut=    40.00 Ry     beta=0.70
     CG style diagonalization
     c_bands:  1 eigenvalues not converged
     c_bands:  1 eigenvalues not converged
     c_bands:  1 eigenvalues not converged
     ethr =  1.72E-07,  avg # of iterations =  4.2

     total cpu time spent up to now is      210.8 secs

     End of self-consistent calculation

     Number of k-points >= 100: set verbosity='high' to print the bands.

     the Fermi energy is    29.0421 ev

!    total energy              =   -1137.45659482 Ry
     Harris-Foulkes estimate   =   -1137.45660026 Ry
     estimated scf accuracy    <       0.00000637 Ry

     The total energy is the sum of the following terms:

     one-electron contribution =    -256.95957879 Ry
     hartree contribution      =     182.89670810 Ry
     xc contribution           =    -100.42445917 Ry
     ewald contribution        =    -962.84236886 Ry
     smearing contrib. (-TS)   =      -0.12689609 Ry

     convergence has been achieved in   9 iterations

     Forces acting on atoms (Ry/au):

     atom    1 type  1   force =     0.00000000    0.00000000    0.00000000
     atom    2 type  1   force =     0.00000000    0.00000000    0.00000000
     atom    3 type  1   force =     0.00000000    0.00000000    0.00000000
     atom    4 type  2   force =     0.00000000    0.00000000    0.00000000

     Total force =     0.000000     Total SCF correction =     0.000000


     entering subroutine stress ...

          total   stress  (Ry/bohr**3)                   (kbar)     P= -762.47
  -0.00518315   0.00000000   0.00000000       -762.47      0.00      0.00
   0.00000000  -0.00518315   0.00000000          0.00   -762.47      0.00
   0.00000000   0.00000000  -0.00518315          0.00      0.00   -762.47


     number of scf cycles    =   2
     number of bfgs steps    =   1

     enthalpy old            =   -1136.7438970234 Ry
     enthalpy new            =   -1137.4565948229 Ry

     CASE: enthalpy_new < enthalpy_old

     small trust_radius: resetting bfgs history

     new trust radius        =       0.5938787797 bohr
     new conv_thr            =       0.0000010000 Ry

     new unit-cell volume =    346.30262 a.u.^3 (    51.31675 Ang^3 )

CELL_PARAMETERS (alat=  7.13166486)
   0.984678226   0.000000000   0.000000000
   0.000000000   0.984678226   0.000000000
   0.000000000   0.000000000   0.984678226

ATOMIC_POSITIONS (crystal)
Cu       0.000000000   0.500000000   0.500000000
Cu       0.500000000   0.500000000   0.000000000
Cu       0.500000000   0.000000000   0.500000000
Au       0.000000000   0.000000000   0.000000000



     Writing output data file Prototype-La-cP4-Cu3Au.save
     NEW-OLD atomic charge density approx. for the potential
     NEW k-points: (use verbosity='high' to print them)

     total cpu time spent up to now is      213.1 secs

     Self-consistent Calculation

     iteration #  1     ecut=    40.00 Ry     beta=0.70
     CG style diagonalization
     c_bands:  5 eigenvalues not converged
     c_bands:  1 eigenvalues not converged
     c_bands:  2 eigenvalues not converged
     c_bands:  2 eigenvalues not converged
     c_bands:  2 eigenvalues not converged
     c_bands:  5 eigenvalues not converged
     c_bands:  2 eigenvalues not converged
     c_bands:  1 eigenvalues not converged
     c_bands:  1 eigenvalues not converged
     c_bands:  1 eigenvalues not converged
     c_bands:  1 eigenvalues not converged
     c_bands:  2 eigenvalues not converged
     c_bands:  1 eigenvalues not converged
     c_bands:  1 eigenvalues not converged
     c_bands:  2 eigenvalues not converged
     c_bands:  1 eigenvalues not converged
     c_bands:  1 eigenvalues not converged
     c_bands:  4 eigenvalues not converged
     c_bands:  1 eigenvalues not converged
     c_bands:  2 eigenvalues not converged
     c_bands:  2 eigenvalues not converged
     c_bands:  1 eigenvalues not converged
     c_bands:  1 eigenvalues not converged
     c_bands:  1 eigenvalues not converged
     c_bands:  1 eigenvalues not converged
     c_bands:  1 eigenvalues not converged
     c_bands:  1 eigenvalues not converged
     c_bands:  1 eigenvalues not converged
     c_bands:  2 eigenvalues not converged
     c_bands:  1 eigenvalues not converged
     c_bands:  2 eigenvalues not converged
     c_bands:  1 eigenvalues not converged
     c_bands:  1 eigenvalues not converged
     c_bands:  1 eigenvalues not converged
     c_bands:  1 eigenvalues not converged
     c_bands:  1 eigenvalues not converged
     c_bands:  2 eigenvalues not converged
     c_bands:  2 eigenvalues not converged
     c_bands:  1 eigenvalues not converged
     c_bands:  1 eigenvalues not converged
     c_bands:  1 eigenvalues not converged
     ethr =  1.00E-06,  avg # of iterations = 23.1

     total cpu time spent up to now is      253.2 secs

     total energy              =   -1120.61705319 Ry
     Harris-Foulkes estimate   =   -1158.74083715 Ry
     estimated scf accuracy    <      47.46546132 Ry

     iteration #  2     ecut=    40.00 Ry     beta=0.70
     CG style diagonalization
     ethr =  1.00E-02,  avg # of iterations =  4.6

     total cpu time spent up to now is      261.9 secs

     total energy              =   -1135.07632019 Ry
     Harris-Foulkes estimate   =   -1139.12036902 Ry
     estimated scf accuracy    <       5.91787945 Ry

     iteration #  3     ecut=    40.00 Ry     beta=0.70
     CG style diagonalization
     ethr =  7.22E-03,  avg # of iterations =  3.6

     total cpu time spent up to now is      268.8 secs

     total energy              =   -1136.27544709 Ry
     Harris-Foulkes estimate   =   -1136.49117039 Ry
     estimated scf accuracy    <       0.36066835 Ry

     iteration #  4     ecut=    40.00 Ry     beta=0.70
     CG style diagonalization
     ethr =  4.40E-04,  avg # of iterations =  3.8

     total cpu time spent up to now is      277.3 secs

     total energy              =   -1136.36617306 Ry
     Harris-Foulkes estimate   =   -1136.39742089 Ry
     estimated scf accuracy    <       0.05371672 Ry

     iteration #  5     ecut=    40.00 Ry     beta=0.70
     CG style diagonalization
     c_bands:  1 eigenvalues not converged
     c_bands:  1 eigenvalues not converged
     c_bands:  1 eigenvalues not converged
     c_bands:  1 eigenvalues not converged
     c_bands:  1 eigenvalues not converged
     c_bands:  1 eigenvalues not converged
     c_bands:  1 eigenvalues not converged
     ethr =  6.55E-05,  avg # of iterations =  3.8

     total cpu time spent up to now is      284.8 secs

     total energy              =   -1136.37870576 Ry
     Harris-Foulkes estimate   =   -1136.37965912 Ry
     estimated scf accuracy    <       0.00184589 Ry

     iteration #  6     ecut=    40.00 Ry     beta=0.70
     CG style diagonalization
     c_bands:  1 eigenvalues not converged
     c_bands:  1 eigenvalues not converged
     c_bands:  1 eigenvalues not converged
     c_bands:  1 eigenvalues not converged
     c_bands:  1 eigenvalues not converged
     c_bands:  1 eigenvalues not converged
     c_bands:  1 eigenvalues not converged
     c_bands:  1 eigenvalues not converged
     c_bands:  2 eigenvalues not converged
     c_bands:  1 eigenvalues not converged
     c_bands:  1 eigenvalues not converged
     c_bands:  1 eigenvalues not converged
     c_bands:  1 eigenvalues not converged
     c_bands:  2 eigenvalues not converged
     c_bands:  1 eigenvalues not converged
     ethr =  2.25E-06,  avg # of iterations =  4.6

     total cpu time spent up to now is      293.6 secs

     total energy              =   -1136.37946842 Ry
     Harris-Foulkes estimate   =   -1136.37955960 Ry
     estimated scf accuracy    <       0.00014651 Ry

     iteration #  7     ecut=    40.00 Ry     beta=0.70
     CG style diagonalization
     c_bands:  1 eigenvalues not converged
     c_bands:  1 eigenvalues not converged
     c_bands:  1 eigenvalues not converged
     ethr =  1.79E-07,  avg # of iterations =  4.0

     total cpu time spent up to now is      300.6 secs

     total energy              =   -1136.37952981 Ry
     Harris-Foulkes estimate   =   -1136.37953107 Ry
     estimated scf accuracy    <       0.00000210 Ry

     iteration #  8     ecut=    40.00 Ry     beta=0.70
     CG style diagonalization
     ethr =  2.57E-09,  avg # of iterations =  4.7

     total cpu time spent up to now is      310.0 secs

     End of self-consistent calculation

     Number of k-points >= 100: set verbosity='high' to print the bands.

     the Fermi energy is    46.1477 ev

!    total energy              =   -1136.37953220 Ry
     Harris-Foulkes estimate   =   -1136.37953225 Ry
     estimated scf accuracy    <       0.00000006 Ry

     The total energy is the sum of the following terms:

     one-electron contribution =     -53.00250353 Ry
     hartree contribution      =     126.77273773 Ry
     xc contribution           =    -103.86458258 Ry
     ewald contribution        =   -1106.17986971 Ry
     smearing contrib. (-TS)   =      -0.10531412 Ry

     convergence has been achieved in   8 iterations

     Forces acting on atoms (Ry/au):

     atom    1 type  1   force =     0.00000000    0.00000000    0.00000000
     atom    2 type  1   force =     0.00000000    0.00000000    0.00000000
     atom    3 type  1   force =     0.00000000    0.00000000    0.00000000
     atom    4 type  2   force =     0.00000000    0.00000000    0.00000000

     Total force =     0.000000     Total SCF correction =     0.000000


     entering subroutine stress ...

          total   stress  (Ry/bohr**3)                   (kbar)     P= 3648.36
   0.02480108   0.00000000   0.00000000       3648.36      0.00      0.00
   0.00000000   0.02480108   0.00000000          0.00   3648.36      0.00
   0.00000000   0.00000000   0.02480108          0.00      0.00   3648.36


     number of scf cycles    =   3
     number of bfgs steps    =   2

     enthalpy old            =   -1137.4565948229 Ry
     enthalpy new            =   -1136.3795322050 Ry

     CASE: enthalpy_new > enthalpy_old

     new trust radius        =       0.1372850743 bohr

     trust_radius < trust_radius_min

     resetting bfgs history

     Message from routine bfgs:
     history already reset at previous step: stopping
     new conv_thr            =       0.0000010000 Ry

     new unit-cell volume =    361.61518 a.u.^3 (    53.58584 Ang^3 )

CELL_PARAMETERS (alat=  7.13166486)
   0.998982677   0.000000000   0.000000000
   0.000000000   0.998982677   0.000000000
   0.000000000   0.000000000   0.998982677

ATOMIC_POSITIONS (crystal)
Cu       0.000000000   0.500000000   0.500000000
Cu       0.500000000   0.500000000   0.000000000
Cu       0.500000000   0.000000000   0.500000000
Au       0.000000000   0.000000000   0.000000000



     Writing output data file Prototype-La-cP4-Cu3Au.save
     NEW-OLD atomic charge density approx. for the potential
     NEW k-points: (use verbosity='high' to print them)

     total cpu time spent up to now is      312.8 secs

     Self-consistent Calculation

     iteration #  1     ecut=    40.00 Ry     beta=0.70
     CG style diagonalization
     c_bands:  1 eigenvalues not converged
     c_bands:  1 eigenvalues not converged
     c_bands:  1 eigenvalues not converged
     c_bands:  1 eigenvalues not converged
     c_bands:  1 eigenvalues not converged
     c_bands:  1 eigenvalues not converged
     c_bands:  1 eigenvalues not converged
     c_bands:  1 eigenvalues not converged
     c_bands:  1 eigenvalues not converged
     c_bands:  2 eigenvalues not converged
     c_bands:  1 eigenvalues not converged
     c_bands:  1 eigenvalues not converged
     c_bands:  1 eigenvalues not converged
     c_bands:  1 eigenvalues not converged
     c_bands:  1 eigenvalues not converged
     ethr =  1.00E-06,  avg # of iterations =  8.5

     total cpu time spent up to now is      328.2 secs

     total energy              =   -1136.56798445 Ry
     Harris-Foulkes estimate   =   -1136.94454310 Ry
     estimated scf accuracy    <       0.47605838 Ry

     iteration #  2     ecut=    40.00 Ry     beta=0.70
     CG style diagonalization
     ethr =  5.81E-04,  avg # of iterations =  3.8

     total cpu time spent up to now is      336.1 secs

     total energy              =   -1136.71062919 Ry
     Harris-Foulkes estimate   =   -1136.74279522 Ry
     estimated scf accuracy    <       0.04705517 Ry

     iteration #  3     ecut=    40.00 Ry     beta=0.70
     CG style diagonalization
     ethr =  5.74E-05,  avg # of iterations =  3.7

     total cpu time spent up to now is      343.1 secs

     total energy              =   -1136.72164337 Ry
     Harris-Foulkes estimate   =   -1136.72196172 Ry
     estimated scf accuracy    <       0.00045632 Ry

     iteration #  4     ecut=    40.00 Ry     beta=0.70
     CG style diagonalization
     c_bands:  1 eigenvalues not converged
     c_bands:  1 eigenvalues not converged
     c_bands:  1 eigenvalues not converged
     c_bands:  1 eigenvalues not converged
     ethr =  5.56E-07,  avg # of iterations =  4.4

     total cpu time spent up to now is      351.4 secs

     total energy              =   -1136.72189610 Ry
     Harris-Foulkes estimate   =   -1136.72201309 Ry
     estimated scf accuracy    <       0.00021614 Ry

     iteration #  5     ecut=    40.00 Ry     beta=0.70
     CG style diagonalization
     c_bands:  1 eigenvalues not converged
     ethr =  2.64E-07,  avg # of iterations =  3.3

     total cpu time spent up to now is      357.8 secs

     total energy              =   -1136.72195057 Ry
     Harris-Foulkes estimate   =   -1136.72195564 Ry
     estimated scf accuracy    <       0.00001042 Ry

     iteration #  6     ecut=    40.00 Ry     beta=0.70
     CG style diagonalization
     ethr =  1.27E-08,  avg # of iterations =  3.5

     total cpu time spent up to now is      364.3 secs

     End of self-consistent calculation

     Number of k-points >= 100: set verbosity='high' to print the bands.

     the Fermi energy is    44.1306 ev

!    total energy              =   -1136.72195309 Ry
     Harris-Foulkes estimate   =   -1136.72195338 Ry
     estimated scf accuracy    <       0.00000033 Ry

     The total energy is the sum of the following terms:

     one-electron contribution =     -75.14631895 Ry
     hartree contribution      =     132.30310666 Ry
     xc contribution           =    -103.43709705 Ry
     ewald contribution        =   -1090.34045936 Ry
     smearing contrib. (-TS)   =      -0.10118439 Ry

     convergence has been achieved in   6 iterations

     Forces acting on atoms (Ry/au):

     atom    1 type  1   force =     0.00000000    0.00000000    0.00000000
     atom    2 type  1   force =     0.00000000    0.00000000    0.00000000
     atom    3 type  1   force =     0.00000000    0.00000000    0.00000000
     atom    4 type  2   force =     0.00000000    0.00000000    0.00000000

     Total force =     0.000000     Total SCF correction =     0.000000


     entering subroutine stress ...

          total   stress  (Ry/bohr**3)                   (kbar)     P= 2946.25
   0.02002817   0.00000000   0.00000000       2946.25      0.00      0.00
   0.00000000   0.02002817   0.00000000          0.00   2946.25      0.00
   0.00000000   0.00000000   0.02002817          0.00      0.00   2946.25


     The maximum number of steps has been reached.

     End of BFGS Geometry Optimization
Begin final coordinates
     new unit-cell volume =    361.61518 a.u.^3 (    53.58584 Ang^3 )

CELL_PARAMETERS (alat=  7.13166486)
   0.998982677   0.000000000   0.000000000
   0.000000000   0.998982677   0.000000000
   0.000000000   0.000000000   0.998982677

ATOMIC_POSITIONS (crystal)
Cu       0.000000000   0.500000000   0.500000000
Cu       0.500000000   0.500000000   0.000000000
Cu       0.500000000   0.000000000   0.500000000
Au       0.000000000   0.000000000   0.000000000
End final coordinates



     A final scf calculation at the relaxed structure.
     The G-vectors are recalculated for the final unit cell
     Results may differ from those at the preceding step.
 
     Parallelization info
     --------------------
     sticks:   dense  smooth     PW     G-vecs:    dense   smooth      PW
     Min         163     163     48                 3073     3073     524
     Max         165     165     49                 3074     3074     527
     Sum         657     657    193                12293    12293    2103
 


     bravais-lattice index     =            0
     lattice parameter (alat)  =       7.1317  a.u.
     unit-cell volume          =     361.6152 (a.u.)^3
     number of atoms/cell      =            4
     number of atomic types    =            2
     number of electrons       =        82.00
     number of Kohn-Sham states=           49
     kinetic-energy cutoff     =      40.0000  Ry
     charge density cutoff     =     160.0000  Ry
     convergence threshold     =      1.0E-06
     mixing beta               =       0.7000
     number of iterations used =            8  plain     mixing
     Exchange-correlation      = SLA-PZ-NOGX-NOGC ( 1 1 0 0 0)
     EXX-fraction              =        0.00

     celldm(1)=   7.131665  celldm(2)=   0.000000  celldm(3)=   0.000000
     celldm(4)=   0.000000  celldm(5)=   0.000000  celldm(6)=   0.000000

     crystal axes: (cart. coord. in units of alat)
               a(1) = (   0.998983   0.000000   0.000000 )  
               a(2) = (   0.000000   0.998983   0.000000 )  
               a(3) = (   0.000000   0.000000   0.998983 )  

     reciprocal axes: (cart. coord. in units 2 pi/alat)
               b(1) = (  1.001018  0.000000  0.000000 )  
               b(2) = (  0.000000  1.001018  0.000000 )  
               b(3) = (  0.000000  0.000000  1.001018 )  


     PseudoPot. # 1 for Er read from file:
     /home/cwx6513/pp.La/Er.UPF
     MD5 check sum: e152ae21b84514339d8526f066caf99b
     Pseudo is Norm-conserving, Zval = 22.0
     Generated in analytical, separable form
     Using radial grid of 1267 points,  6 beta functions with: 
                l(1) =   0
                l(2) =   0
                l(3) =   1
                l(4) =   1
                l(5) =   2
                l(6) =   3

     PseudoPot. # 2 for Sm read from file:
     /home/cwx6513/pp.La/Sm.UPF
     MD5 check sum: 5079e8b144a06bfcdbc14fb02b96ab09
     Pseudo is Norm-conserving, Zval = 16.0
     Generated in analytical, separable form
     Using radial grid of 1259 points,  6 beta functions with: 
                l(1) =   0
                l(2) =   0
                l(3) =   1
                l(4) =   1
                l(5) =   2
                l(6) =   3

     atomic species   valence    mass     pseudopotential
        Cu            22.00    63.54600     Er( 1.00)
        Au            16.00   196.96600     Sm( 1.00)

     48 Sym. Ops., with inversion, found



   Cartesian axes

     site n.     atom                  positions (alat units)
         1           Cu  tau(   1) = (   0.0000000   0.4994913   0.4994913  )
         2           Cu  tau(   2) = (   0.4994913   0.4994913   0.0000000  )
         3           Cu  tau(   3) = (   0.4994913   0.0000000   0.4994913  )
         4           Au  tau(   4) = (   0.0000000   0.0000000   0.0000000  )

     number of k points=   100  gaussian smearing, width (Ry)=  0.1000

     Number of k-points >= 100: set verbosity='high' to print them.

     Dense  grid:    12293 G-vectors     FFT dimensions: (  30,  30,  30)

     Largest allocated arrays     est. size (Mb)     dimensions
        Kohn-Sham Wavefunctions         0.30 Mb     (    400,   49)
        NL pseudopotentials             0.49 Mb     (    400,   80)
        Each V/rho on FFT grid          0.11 Mb     (   7200)
        Each G-vector array             0.02 Mb     (   3074)
        G-vector shells                 0.00 Mb     (    172)
     Largest temporary arrays     est. size (Mb)     dimensions
        Each subspace H/S matrix        0.04 Mb     (  49,  49)
        Each <psi_i|beta_j> matrix      0.06 Mb     (     80,   49)
        Arrays for rho mixing           0.88 Mb     (   7200,   8)

     Initial potential from superposition of free atoms

     Starting from uniform charge
     Starting wfc are    0 randomized atomic wfcs

     Writing output data file Prototype-La-cP4-Cu3Au.save

     total cpu time spent up to now is      368.6 secs

     Self-consistent Calculation

     iteration #  1     ecut=    40.00 Ry     beta=0.70
     CG style diagonalization
     c_bands:  3 eigenvalues not converged
     c_bands:  4 eigenvalues not converged
     c_bands:  1 eigenvalues not converged
     c_bands:  3 eigenvalues not converged
     c_bands:  1 eigenvalues not converged
     c_bands:  3 eigenvalues not converged
     c_bands:  3 eigenvalues not converged
     c_bands:  1 eigenvalues not converged
     c_bands:  2 eigenvalues not converged
     c_bands:  3 eigenvalues not converged
     c_bands:  3 eigenvalues not converged
     c_bands:  2 eigenvalues not converged
     c_bands:  2 eigenvalues not converged
     c_bands:  1 eigenvalues not converged
     c_bands:  3 eigenvalues not converged
     c_bands:  3 eigenvalues not converged
     c_bands:  1 eigenvalues not converged
     c_bands:  1 eigenvalues not converged
     c_bands:  5 eigenvalues not converged
     c_bands:  2 eigenvalues not converged
     c_bands:  3 eigenvalues not converged
     c_bands:  2 eigenvalues not converged
     c_bands:  3 eigenvalues not converged
     c_bands:  2 eigenvalues not converged
     c_bands:  1 eigenvalues not converged
     c_bands:  3 eigenvalues not converged
     c_bands:  1 eigenvalues not converged
     c_bands:  1 eigenvalues not converged
     c_bands:  3 eigenvalues not converged
     c_bands:  1 eigenvalues not converged
     c_bands:  4 eigenvalues not converged
     c_bands:  3 eigenvalues not converged
     c_bands:  2 eigenvalues not converged
     c_bands:  2 eigenvalues not converged
     c_bands:  4 eigenvalues not converged
     c_bands:  1 eigenvalues not converged
     c_bands:  2 eigenvalues not converged
     c_bands:  1 eigenvalues not converged
     c_bands:  2 eigenvalues not converged
     c_bands:  2 eigenvalues not converged
     c_bands:  2 eigenvalues not converged
     c_bands:  3 eigenvalues not converged
     c_bands:  2 eigenvalues not converged
     c_bands:  2 eigenvalues not converged
     c_bands:  4 eigenvalues not converged
     c_bands:  4 eigenvalues not converged
     c_bands:  2 eigenvalues not converged
     c_bands:  5 eigenvalues not converged
     c_bands:  2 eigenvalues not converged
     c_bands:  3 eigenvalues not converged
     c_bands:  3 eigenvalues not converged
     c_bands:  4 eigenvalues not converged
     c_bands:  5 eigenvalues not converged
     c_bands:  4 eigenvalues not converged
     c_bands:  4 eigenvalues not converged
     c_bands:  3 eigenvalues not converged
     c_bands:  2 eigenvalues not converged
     c_bands:  3 eigenvalues not converged
     c_bands:  5 eigenvalues not converged
     c_bands:  4 eigenvalues not converged
     c_bands:  3 eigenvalues not converged
     c_bands:  5 eigenvalues not converged
     c_bands:  3 eigenvalues not converged
     c_bands:  3 eigenvalues not converged
     c_bands:  3 eigenvalues not converged
     c_bands:  2 eigenvalues not converged
     c_bands:  2 eigenvalues not converged
     c_bands:  2 eigenvalues not converged
     c_bands:  2 eigenvalues not converged
     c_bands:  1 eigenvalues not converged
     c_bands:  4 eigenvalues not converged
     c_bands:  2 eigenvalues not converged
     c_bands:  3 eigenvalues not converged
     c_bands:  2 eigenvalues not converged
     c_bands:  4 eigenvalues not converged
     c_bands:  2 eigenvalues not converged
     c_bands:  2 eigenvalues not converged
     c_bands:  1 eigenvalues not converged
     c_bands:  4 eigenvalues not converged
     c_bands:  3 eigenvalues not converged
     c_bands:  1 eigenvalues not converged
     c_bands:  1 eigenvalues not converged
     c_bands:  1 eigenvalues not converged
     c_bands:  5 eigenvalues not converged
     c_bands:  4 eigenvalues not converged
     c_bands:  3 eigenvalues not converged
     c_bands:  2 eigenvalues not converged
     c_bands:  1 eigenvalues not converged
     c_bands:  2 eigenvalues not converged
     c_bands:  2 eigenvalues not converged
     c_bands:  4 eigenvalues not converged
     ethr =  1.00E-06,  avg # of iterations = 53.5

     total cpu time spent up to now is      461.0 secs

     total energy              =    -868.79961868 Ry
     Harris-Foulkes estimate   =   -1362.56696504 Ry
     estimated scf accuracy    <     611.95815275 Ry

     iteration #  2     ecut=    40.00 Ry     beta=0.70
     CG style diagonalization
     c_bands:  5 eigenvalues not converged
     c_bands:  1 eigenvalues not converged
     c_bands:  1 eigenvalues not converged
     c_bands:  1 eigenvalues not converged
     c_bands:  1 eigenvalues not converged
     c_bands:  1 eigenvalues not converged
     c_bands:  1 eigenvalues not converged
     c_bands:  1 eigenvalues not converged
     c_bands:  1 eigenvalues not converged
     c_bands:  1 eigenvalues not converged
     c_bands:  1 eigenvalues not converged
     c_bands:  1 eigenvalues not converged
     c_bands:  1 eigenvalues not converged
     c_bands:  1 eigenvalues not converged
     c_bands:  1 eigenvalues not converged
     c_bands:  1 eigenvalues not converged
     c_bands:  1 eigenvalues not converged
     c_bands:  1 eigenvalues not converged
     c_bands:  1 eigenvalues not converged
     c_bands:  1 eigenvalues not converged
     c_bands:  1 eigenvalues not converged
     c_bands:  1 eigenvalues not converged
     c_bands:  1 eigenvalues not converged
     c_bands:  1 eigenvalues not converged
     c_bands:  1 eigenvalues not converged
     c_bands:  1 eigenvalues not converged
     c_bands:  2 eigenvalues not converged
     c_bands:  1 eigenvalues not converged
     c_bands:  1 eigenvalues not converged
     c_bands:  2 eigenvalues not converged
     c_bands:  1 eigenvalues not converged
     c_bands:  3 eigenvalues not converged
     c_bands:  2 eigenvalues not converged
     c_bands:  1 eigenvalues not converged
     c_bands:  1 eigenvalues not converged
     c_bands:  1 eigenvalues not converged
     c_bands:  2 eigenvalues not converged
     c_bands:  1 eigenvalues not converged
     c_bands:  1 eigenvalues not converged
     c_bands:  1 eigenvalues not converged
     c_bands:  1 eigenvalues not converged
     ethr =  1.00E-02,  avg # of iterations = 13.1

     total cpu time spent up to now is      483.9 secs

     total energy              =    -937.61759717 Ry
     Harris-Foulkes estimate   =   -1335.34881962 Ry
     estimated scf accuracy    <     775.39048590 Ry

     iteration #  3     ecut=    40.00 Ry     beta=0.70
     CG style diagonalization
     c_bands:  1 eigenvalues not converged
     c_bands:  1 eigenvalues not converged
     c_bands:  1 eigenvalues not converged
     c_bands:  1 eigenvalues not converged
     c_bands:  1 eigenvalues not converged
     c_bands:  1 eigenvalues not converged
     c_bands:  1 eigenvalues not converged
     c_bands:  1 eigenvalues not converged
     c_bands:  1 eigenvalues not converged
     c_bands:  1 eigenvalues not converged
     ethr =  1.00E-02,  avg # of iterations = 10.3

     total cpu time spent up to now is      502.2 secs

     total energy              =   -1127.38902972 Ry
     Harris-Foulkes estimate   =   -1157.36333751 Ry
     estimated scf accuracy    <      62.75485730 Ry

     iteration #  4     ecut=    40.00 Ry     beta=0.70
     CG style diagonalization
     ethr =  1.00E-02,  avg # of iterations =  4.7

     total cpu time spent up to now is      510.5 secs

     total energy              =   -1136.55183093 Ry
     Harris-Foulkes estimate   =   -1137.60515907 Ry
     estimated scf accuracy    <       2.36169304 Ry

     iteration #  5     ecut=    40.00 Ry     beta=0.70
     CG style diagonalization
     ethr =  2.88E-03,  avg # of iterations =  3.5

     total cpu time spent up to now is      516.7 secs

     total energy              =   -1136.56435570 Ry
     Harris-Foulkes estimate   =   -1136.86274492 Ry
     estimated scf accuracy    <       0.50480266 Ry

     iteration #  6     ecut=    40.00 Ry     beta=0.70
     CG style diagonalization
     c_bands:  1 eigenvalues not converged
     ethr =  6.16E-04,  avg # of iterations =  4.0

     total cpu time spent up to now is      523.8 secs

     total energy              =   -1136.69401883 Ry
     Harris-Foulkes estimate   =   -1136.72803361 Ry
     estimated scf accuracy    <       0.05805643 Ry

     iteration #  7     ecut=    40.00 Ry     beta=0.70
     CG style diagonalization
     c_bands:  1 eigenvalues not converged
     c_bands:  1 eigenvalues not converged
     c_bands:  1 eigenvalues not converged
     c_bands:  1 eigenvalues not converged
     c_bands:  1 eigenvalues not converged
     c_bands:  2 eigenvalues not converged
     c_bands:  1 eigenvalues not converged
     c_bands:  1 eigenvalues not converged
     c_bands:  1 eigenvalues not converged
     ethr =  7.08E-05,  avg # of iterations =  4.0

     total cpu time spent up to now is      530.8 secs

     total energy              =   -1136.71115386 Ry
     Harris-Foulkes estimate   =   -1136.71128949 Ry
     estimated scf accuracy    <       0.00038447 Ry

     iteration #  8     ecut=    40.00 Ry     beta=0.70
     CG style diagonalization
     c_bands:  1 eigenvalues not converged
     c_bands:  1 eigenvalues not converged
     c_bands:  1 eigenvalues not converged
     c_bands:  2 eigenvalues not converged
     c_bands:  1 eigenvalues not converged
     c_bands:  1 eigenvalues not converged
     c_bands:  1 eigenvalues not converged
     c_bands:  1 eigenvalues not converged
     c_bands:  1 eigenvalues not converged
     c_bands:  2 eigenvalues not converged
     c_bands:  1 eigenvalues not converged
     c_bands:  1 eigenvalues not converged
     c_bands:  1 eigenvalues not converged
     c_bands:  1 eigenvalues not converged
     c_bands:  1 eigenvalues not converged
     c_bands:  2 eigenvalues not converged
     c_bands:  1 eigenvalues not converged
     c_bands:  1 eigenvalues not converged
     c_bands:  1 eigenvalues not converged
     c_bands:  1 eigenvalues not converged
     c_bands:  1 eigenvalues not converged
     ethr =  4.69E-07,  avg # of iterations =  5.9

     total cpu time spent up to now is      541.3 secs

     total energy              =   -1136.71184441 Ry
     Harris-Foulkes estimate   =   -1136.71212105 Ry
     estimated scf accuracy    <       0.00055451 Ry

     iteration #  9     ecut=    40.00 Ry     beta=0.70
     CG style diagonalization
     c_bands:  1 eigenvalues not converged
     c_bands:  1 eigenvalues not converged
     c_bands:  1 eigenvalues not converged
     c_bands:  1 eigenvalues not converged
     c_bands:  1 eigenvalues not converged
     ethr =  4.69E-07,  avg # of iterations =  3.4

     total cpu time spent up to now is      547.9 secs

     total energy              =   -1136.71194160 Ry
     Harris-Foulkes estimate   =   -1136.71194318 Ry
     estimated scf accuracy    <       0.00000325 Ry

     iteration # 10     ecut=    40.00 Ry     beta=0.70
     CG style diagonalization
     ethr =  3.96E-09,  avg # of iterations =  4.7

     total cpu time spent up to now is      556.1 secs

     total energy              =   -1136.71194532 Ry
     Harris-Foulkes estimate   =   -1136.71194575 Ry
     estimated scf accuracy    <       0.00000101 Ry

     iteration # 11     ecut=    40.00 Ry     beta=0.70
     CG style diagonalization
     ethr =  1.23E-09,  avg # of iterations =  3.3

     total cpu time spent up to now is      561.8 secs

     End of self-consistent calculation

     Number of k-points >= 100: set verbosity='high' to print the bands.

     the Fermi energy is    44.1327 ev

!    total energy              =   -1136.71194546 Ry
     Harris-Foulkes estimate   =   -1136.71194549 Ry
     estimated scf accuracy    <       0.00000003 Ry

     The total energy is the sum of the following terms:

     one-electron contribution =     -75.12606857 Ry
     hartree contribution      =     132.29108430 Ry
     xc contribution           =    -103.43534796 Ry
     ewald contribution        =   -1090.34045936 Ry
     smearing contrib. (-TS)   =      -0.10115387 Ry

     convergence has been achieved in  11 iterations

     Forces acting on atoms (Ry/au):

     atom    1 type  1   force =     0.00000000    0.00000000    0.00000000
     atom    2 type  1   force =     0.00000000    0.00000000    0.00000000
     atom    3 type  1   force =     0.00000000    0.00000000    0.00000000
     atom    4 type  2   force =     0.00000000    0.00000000    0.00000000

     Total force =     0.000000     Total SCF correction =     0.000000


     entering subroutine stress ...

          total   stress  (Ry/bohr**3)                   (kbar)     P= 2936.03
   0.01995873   0.00000000   0.00000000       2936.03      0.00      0.00
   0.00000000   0.01995873   0.00000000          0.00   2936.03      0.00
   0.00000000   0.00000000   0.01995873          0.00      0.00   2936.03


     Writing output data file Prototype-La-cP4-Cu3Au.save
 
     init_run     :      3.03s CPU      3.40s WALL (       2 calls)
     electrons    :    514.90s CPU    547.56s WALL (       5 calls)
     update_pot   :      0.81s CPU      0.82s WALL (       3 calls)
     forces       :      2.17s CPU      2.36s WALL (       5 calls)
     stress       :      6.02s CPU      6.12s WALL (       5 calls)

     Called by init_run:
     wfcinit      :      2.71s CPU      3.06s WALL (       2 calls)
     potinit      :      0.13s CPU      0.13s WALL (       2 calls)

     Called by electrons:
     c_bands      :    494.00s CPU    517.68s WALL (      43 calls)
     sum_band     :     20.77s CPU     21.66s WALL (      43 calls)
     v_of_rho     :      0.03s CPU      0.03s WALL (      48 calls)
     mix_rho      :      0.03s CPU      0.03s WALL (      43 calls)

     Called by c_bands:
     init_us_2    :      1.98s CPU      2.21s WALL (    9800 calls)
     ccgdiagg     :    430.97s CPU    446.62s WALL (    4794 calls)
     wfcrot       :     63.62s CPU     68.80s WALL (    4894 calls)

     Called by *cgdiagg:
     h_psi        :    333.08s CPU    355.31s WALL ( 1249394 calls)
     cdiaghg      :      4.06s CPU      4.34s WALL (    4894 calls)

     Called by h_psi:
     add_vuspsi   :     26.31s CPU     36.60s WALL ( 1249394 calls)

     General routines
     calbec       :     86.24s CPU     83.07s WALL ( 2494894 calls)
     fft          :      0.04s CPU      0.04s WALL (     215 calls)
     fftw         :    258.19s CPU    260.49s WALL ( 3179312 calls)
     davcio       :      1.58s CPU      4.59s WALL (   14100 calls)
 
     Parallel routines
     fft_scatter  :     82.25s CPU     86.99s WALL ( 3179527 calls)
 
     PWSCF        :  8m47.91s CPU     9m24.18s WALL

 
   This run was terminated on:  22:55: 6  22Mar2018            

=------------------------------------------------------------------------------=
   JOB DONE.
=------------------------------------------------------------------------------=
