
     Program PWSCF v.5.0.2 starts on 21Mar2018 at 22:59:10 

     This program is part of the open-source Quantum ESPRESSO suite
     for quantum simulation of materials; please cite
         "P. Giannozzi et al., J. Phys.:Condens. Matter 21 395502 (2009);
          URL http://www.quantum-espresso.org", 
     in publications or presentations arising from this work. More details at
     http://www.quantum-espresso.org/quote.php

     Parallel version (MPI), running on    20 processors
     R & G space division:  proc/nbgrp/npool/nimage =      20

     Current dimensions of program PWSCF are:
     Max number of different atomic species (ntypx) = 10
     Max number of k-points (npk) =  40000
     Max angular momentum in pseudopotentials (lmaxx) =  3
     Waiting for input...
     Reading input from standard input

     Subspace diagonalization in iterative solution of the eigenvalue problem:
     scalapack distributed-memory algorithm (size of sub-group:  3*  3 procs)

 
     Parallelization info
     --------------------
     sticks:   dense  smooth     PW     G-vecs:    dense   smooth      PW
     Min          27      27      8                 1675     1675     264
     Max          28      28      9                 1684     1684     273
     Sum         559     559    163                33613    33613    5359
 


     bravais-lattice index     =            0
     lattice parameter (alat)  =       7.0732  a.u.
     unit-cell volume          =     984.3927 (a.u.)^3
     number of atoms/cell      =            4
     number of atomic types    =            1
     number of electrons       =        52.00
     number of Kohn-Sham states=           31
     kinetic-energy cutoff     =      40.0000  Ry
     charge density cutoff     =     160.0000  Ry
     convergence threshold     =      1.0E-04
     mixing beta               =       0.7000
     number of iterations used =            8  plain     mixing
     Exchange-correlation      = SLA-PZ-NOGX-NOGC ( 1 1 0 0 0)
     EXX-fraction              =        0.00
     nstep                     =           50


     celldm(1)=   7.073224  celldm(2)=   0.000000  celldm(3)=   0.000000
     celldm(4)=   0.000000  celldm(5)=   0.000000  celldm(6)=   0.000000

     crystal axes: (cart. coord. in units of alat)
               a(1) = (   1.000000   0.000000   0.000000 )  
               a(2) = (  -0.500000   0.866025   0.000000 )  
               a(3) = (   0.000000   0.000000   3.212074 )  

     reciprocal axes: (cart. coord. in units 2 pi/alat)
               b(1) = (  1.000000  0.577350  0.000000 )  
               b(2) = (  0.000000  1.154701  0.000000 )  
               b(3) = (  0.000000  0.000000  0.311325 )  


     PseudoPot. # 1 for Pr read from file:
     /home/cwx6513/pp.La/Pr.UPF
     MD5 check sum: 70e2b4b153859e92c8c91247dfc63203
     Pseudo is Norm-conserving, Zval = 13.0
     Generated in analytical, separable form
     Using radial grid of 1255 points,  6 beta functions with: 
                l(1) =   0
                l(2) =   0
                l(3) =   1
                l(4) =   1
                l(5) =   2
                l(6) =   3

     atomic species   valence    mass     pseudopotential
        Pr            13.00   140.90800     Pr( 1.00)

     24 Sym. Ops., with inversion, found (12 have fractional translation)



   Cartesian axes

     site n.     atom                  positions (alat units)
         1           Pr  tau(   1) = (   0.0000000   0.0000000   0.0000000  )
         2           Pr  tau(   2) = (   0.0000000   0.0000000   1.6060372  )
         3           Pr  tau(   3) = (  -0.0000005   0.5773506   0.8030186  )
         4           Pr  tau(   4) = (   0.5000005   0.2886748   2.4090558  )

     number of k points=    12  gaussian smearing, width (Ry)=  0.1000
                       cart. coord. in units 2pi/alat
        k(    1) = (   0.0000000   0.0000000   0.0000000), wk =   0.0833333
        k(    2) = (   0.0000000   0.0000000   0.0778313), wk =   0.1666667
        k(    3) = (   0.0000000   0.0000000  -0.1556626), wk =   0.0833333
        k(    4) = (   0.0000000   0.3849002   0.0000000), wk =   0.1666667
        k(    5) = (   0.0000000   0.3849002   0.0778313), wk =   0.3333333
        k(    6) = (   0.0000000   0.3849002  -0.1556626), wk =   0.1666667
        k(    7) = (  -0.5000000  -0.2886751   0.0000000), wk =   0.0833333
        k(    8) = (  -0.5000000  -0.2886751   0.0778313), wk =   0.1666667
        k(    9) = (  -0.5000000  -0.2886751  -0.1556626), wk =   0.0833333
        k(   10) = (  -0.5000000   0.0962250   0.0000000), wk =   0.1666667
        k(   11) = (  -0.5000000   0.0962250   0.0778313), wk =   0.3333333
        k(   12) = (  -0.5000000   0.0962250  -0.1556626), wk =   0.1666667

     Dense  grid:    33613 G-vectors     FFT dimensions: (  30,  30,  96)

     Largest allocated arrays     est. size (Mb)     dimensions
        Kohn-Sham Wavefunctions         0.11 Mb     (    229,   31)
        NL pseudopotentials             0.28 Mb     (    229,   80)
        Each V/rho on FFT grid          0.07 Mb     (   4500)
        Each G-vector array             0.01 Mb     (   1682)
        G-vector shells                 0.01 Mb     (   1682)
     Largest temporary arrays     est. size (Mb)     dimensions
        Each subspace H/S matrix        0.00 Mb     (  10,  10)
        Each <psi_i|beta_j> matrix      0.04 Mb     (     80,   31)
        Arrays for rho mixing           0.55 Mb     (   4500,   8)

     Initial potential from superposition of free atoms
     Check: negative starting charge=   -0.000483

     starting charge   51.96217, renormalised to   52.00000

     negative rho (up, down):  0.484E-03 0.000E+00
     Starting wfc are   80 randomized atomic wfcs

     total cpu time spent up to now is        2.4 secs

     Self-consistent Calculation

     iteration #  1     ecut=    40.00 Ry     beta=0.70
     CG style diagonalization
     ethr =  1.00E-02,  avg # of iterations =  2.3

     negative rho (up, down):  0.133E-03 0.000E+00

     total cpu time spent up to now is        2.9 secs

     total energy              =    -369.06497266 Ry
     Harris-Foulkes estimate   =    -377.58758514 Ry
     estimated scf accuracy    <      11.27849895 Ry

     iteration #  2     ecut=    40.00 Ry     beta=0.70
     CG style diagonalization
     ethr =  1.00E-02,  avg # of iterations =  4.0

     negative rho (up, down):  0.352E-04 0.000E+00

     total cpu time spent up to now is        3.4 secs

     total energy              =    -371.41473157 Ry
     Harris-Foulkes estimate   =    -371.69724530 Ry
     estimated scf accuracy    <       0.55058841 Ry

     iteration #  3     ecut=    40.00 Ry     beta=0.70
     CG style diagonalization
     ethr =  1.06E-03,  avg # of iterations =  3.6

     total cpu time spent up to now is        4.0 secs

     total energy              =    -371.54070289 Ry
     Harris-Foulkes estimate   =    -371.54170431 Ry
     estimated scf accuracy    <       0.02260868 Ry

     iteration #  4     ecut=    40.00 Ry     beta=0.70
     CG style diagonalization
     ethr =  4.35E-05,  avg # of iterations =  4.1

     total cpu time spent up to now is        4.5 secs

     total energy              =    -371.54372775 Ry
     Harris-Foulkes estimate   =    -371.54749955 Ry
     estimated scf accuracy    <       0.00969829 Ry

     iteration #  5     ecut=    40.00 Ry     beta=0.70
     CG style diagonalization
     c_bands:  1 eigenvalues not converged
     ethr =  1.87E-05,  avg # of iterations =  3.9

     total cpu time spent up to now is        5.0 secs

     total energy              =    -371.54523435 Ry
     Harris-Foulkes estimate   =    -371.54778365 Ry
     estimated scf accuracy    <       0.01200511 Ry

     iteration #  6     ecut=    40.00 Ry     beta=0.70
     CG style diagonalization
     ethr =  1.87E-05,  avg # of iterations =  3.2

     total cpu time spent up to now is        5.5 secs

     total energy              =    -371.54628384 Ry
     Harris-Foulkes estimate   =    -371.54631443 Ry
     estimated scf accuracy    <       0.00019235 Ry

     iteration #  7     ecut=    40.00 Ry     beta=0.70
     CG style diagonalization
     c_bands:  1 eigenvalues not converged
     ethr =  3.70E-07,  avg # of iterations =  5.2

     total cpu time spent up to now is        6.2 secs

     total energy              =    -371.54775529 Ry
     Harris-Foulkes estimate   =    -371.54778240 Ry
     estimated scf accuracy    <       0.00028717 Ry

     iteration #  8     ecut=    40.00 Ry     beta=0.70
     CG style diagonalization
     ethr =  3.70E-07,  avg # of iterations =  3.0

     total cpu time spent up to now is        6.6 secs

     total energy              =    -371.54771543 Ry
     Harris-Foulkes estimate   =    -371.54776069 Ry
     estimated scf accuracy    <       0.00018719 Ry

     iteration #  9     ecut=    40.00 Ry     beta=0.70
     CG style diagonalization
     ethr =  3.60E-07,  avg # of iterations =  3.6

     total cpu time spent up to now is        7.0 secs

     End of self-consistent calculation

          k = 0.0000 0.0000 0.0000 (  4167 PWs)   bands (ev):

   -32.1736 -32.1444 -32.1335 -32.1033 -12.1570 -11.8590 -11.8514 -11.6607
   -11.6607 -11.6237 -11.6237 -11.6111 -11.6111 -11.5701 -11.5701 -11.5325
     7.2566   8.4611   8.4638   8.7538  10.9463  10.9756  11.1448  11.1448
    11.1723  11.1723  11.3637  11.5161  11.5161  11.5929  11.5929

          k = 0.0000 0.0000 0.0778 (  4186 PWs)   bands (ev):

   -32.1714 -32.1534 -32.1247 -32.1060 -12.1358 -11.9741 -11.7352 -11.6567
   -11.6567 -11.6363 -11.6363 -11.5991 -11.5991 -11.5751 -11.5751 -11.5601
     7.3559   8.0467   8.7199   8.7676  10.9694  11.1802  11.1802  11.2122
    11.2122  11.2716  11.2960  11.4525  11.4525  11.5215  11.5215

          k = 0.0000 0.0000-0.1557 (  4210 PWs)   bands (ev):

   -32.1641 -32.1641 -32.1140 -32.1140 -12.0746 -12.0746 -11.6501 -11.6501
   -11.6501 -11.6501 -11.6324 -11.6324 -11.5841 -11.5841 -11.5841 -11.5841
     7.6381   7.6381   8.7844   8.7844  11.1309  11.1309  11.2558  11.2558
    11.2558  11.2558  11.4001  11.4001  11.4001  11.4001  11.8831

          k = 0.0000 0.3849 0.0000 (  4204 PWs)   bands (ev):

   -32.1295 -32.1142 -32.1034 -32.0881 -12.0580 -12.0504 -11.9630 -11.9565
   -11.9214 -11.7644 -11.7298 -11.7090 -11.7001 -11.6908 -11.6259 -11.6162
     8.7793   9.0498   9.1552   9.4866   9.9788   9.9902  10.3819  10.8762
    11.0592  11.3010  11.4854  11.8095  12.1768  12.2807  12.3403

          k = 0.0000 0.3849 0.0778 (  4200 PWs)   bands (ev):

   -32.1280 -32.1181 -32.0994 -32.0895 -12.0641 -12.0225 -12.0142 -11.9392
   -11.8950 -11.7704 -11.7586 -11.7224 -11.6747 -11.6689 -11.6319 -11.6219
     8.8086   9.0220   9.2044   9.4878   9.7405  10.0095  10.5182  10.9107
    11.2174  11.3712  11.4452  11.7747  11.9021  12.1269  12.7329

          k = 0.0000 0.3849-0.1557 (  4196 PWs)   bands (ev):

   -32.1240 -32.1240 -32.0935 -32.0935 -12.0501 -12.0501 -11.9800 -11.9800
   -11.8284 -11.8284 -11.7431 -11.7431 -11.6470 -11.6469 -11.6425 -11.6425
     8.9042   8.9042   9.3713   9.3713   9.7740   9.7740  10.8205  10.8205
    11.3609  11.3609  11.5776  11.5776  11.9175  11.9175  13.0722

          k =-0.5000-0.2887 0.0000 (  4208 PWs)   bands (ev):

   -32.1118 -32.1039 -32.0933 -32.0859 -12.1499 -12.1403 -12.0447 -12.0371
   -11.8471 -11.7950 -11.7895 -11.7255 -11.7161 -11.7061 -11.6483 -11.6465
     8.7485   8.7678   9.0122   9.4295   9.7104  10.0318  10.2101  10.7834
    11.1009  11.2205  11.8394  12.3588  12.3826  13.0870  13.6236

          k =-0.5000-0.2887 0.0778 (  4222 PWs)   bands (ev):

   -32.1108 -32.1057 -32.0919 -32.0869 -12.1401 -12.1320 -12.0630 -12.0537
   -11.8298 -11.7910 -11.7851 -11.7505 -11.7039 -11.6935 -11.6572 -11.6528
     8.8313   8.8438   9.0436   9.3069   9.5798   9.6291  10.6315  10.7737
    11.1847  11.6178  11.8334  11.8500  12.7418  13.0088  13.1888

          k =-0.5000-0.2887-0.1557 (  4204 PWs)   bands (ev):

   -32.1084 -32.1084 -32.0890 -32.0890 -12.1200 -12.1200 -12.0802 -12.0802
   -11.7963 -11.7963 -11.7742 -11.7742 -11.6826 -11.6826 -11.6688 -11.6688
     9.0173   9.0173   9.0554   9.0554   9.4134   9.4134  10.8457  10.8457
    11.4324  11.4324  12.0377  12.0377  12.5021  12.5021  13.6832

          k =-0.5000 0.0962 0.0000 (  4215 PWs)   bands (ev):

   -32.1115 -32.1042 -32.0934 -32.0860 -12.0936 -12.0853 -11.9992 -11.9911
   -11.9012 -11.8469 -11.8029 -11.7902 -11.7151 -11.7101 -11.6710 -11.6572
     9.1558   9.1635   9.5397   9.9116   9.9747  10.0701  10.1912  10.6113
    10.7201  11.0617  11.4606  11.7585  11.9508  12.3888  12.6814

          k =-0.5000 0.0962 0.0778 (  4211 PWs)   bands (ev):

   -32.1107 -32.1057 -32.0919 -32.0867 -12.0872 -12.0753 -12.0173 -12.0104
   -11.8733 -11.8488 -11.7962 -11.7799 -11.7365 -11.7209 -11.6629 -11.6532
     9.1949   9.2552   9.5715   9.6894   9.7352  10.0057  10.3785  10.7935
    10.9500  11.0124  11.4272  11.7503  11.8928  12.1935  12.8620

          k =-0.5000 0.0962-0.1557 (  4206 PWs)   bands (ev):

   -32.1085 -32.1085 -32.0889 -32.0889 -12.0687 -12.0687 -12.0338 -12.0338
   -11.8499 -11.8499 -11.7768 -11.7768 -11.7467 -11.7467 -11.6536 -11.6536
     9.3633   9.3633   9.4611   9.4611   9.7706   9.7706  10.6884  10.6884
    11.1243  11.1243  11.5326  11.5326  11.9573  11.9573  13.0661

     the Fermi energy is    11.4389 ev

!    total energy              =    -371.54774107 Ry
     Harris-Foulkes estimate   =    -371.54774221 Ry
     estimated scf accuracy    <       0.00000143 Ry

     The total energy is the sum of the following terms:

     one-electron contribution =     -63.51549600 Ry
     hartree contribution      =      48.35200535 Ry
     xc contribution           =     -44.36712208 Ry
     ewald contribution        =    -311.54699087 Ry
     smearing contrib. (-TS)   =      -0.47013747 Ry

     convergence has been achieved in   9 iterations

     Forces acting on atoms (Ry/au):

     atom    1 type  1   force =     0.00000000    0.00000000    0.00000000
     atom    2 type  1   force =     0.00000000    0.00000000    0.00000000
     atom    3 type  1   force =     0.00000000    0.00000000    0.00000000
     atom    4 type  1   force =     0.00000000    0.00000000    0.00000000

     Total force =     0.000000     Total SCF correction =     0.000000


     entering subroutine stress ...

          total   stress  (Ry/bohr**3)                   (kbar)     P= -263.76
  -0.00191113   0.00000000   0.00000000       -281.14      0.00      0.00
   0.00000000  -0.00191113   0.00000000          0.00   -281.14      0.00
   0.00000000   0.00000000  -0.00155668          0.00      0.00   -229.00


     BFGS Geometry Optimization

     number of scf cycles    =   1
     number of bfgs steps    =   0

     enthalpy new            =    -371.5477410661 Ry

     new trust radius        =       0.2998081388 bohr
     new conv_thr            =       0.0001000000 Ry

     new unit-cell volume =    857.83848 a.u.^3 (   127.11855 Ang^3 )

CELL_PARAMETERS (alat=  7.07322357)
   0.952221861   0.000000000   0.000000000
  -0.476110930   0.824648321   0.000000000
   0.000000000   0.000000000   3.087069742

ATOMIC_POSITIONS (crystal)
Pr       0.000000000   0.000000000   0.000000000
Pr       0.000000000   0.000000000   0.500000000
Pr       0.333333000   0.666667000   0.250000000
Pr       0.666667000   0.333333000   0.750000000



     Writing output data file Element-Pr.q.save
     Check: negative starting charge=   -0.000483
     NEW-OLD atomic charge density approx. for the potential
     NEW k-points:
        k(    1) = (   0.0000000   0.0000000   0.0000000), wk =   0.0833333
        k(    2) = (   0.0000000   0.0000000   0.0809829), wk =   0.1666667
        k(    3) = (   0.0000000   0.0000000  -0.1619659), wk =   0.0833333
        k(    4) = (   0.0000000   0.4042127   0.0000000), wk =   0.1666667
        k(    5) = (   0.0000000   0.4042127   0.0809829), wk =   0.3333333
        k(    6) = (   0.0000000   0.4042127  -0.1619659), wk =   0.1666667
        k(    7) = (  -0.5250877  -0.3031595   0.0000000), wk =   0.0833333
        k(    8) = (  -0.5250877  -0.3031595   0.0809829), wk =   0.1666667
        k(    9) = (  -0.5250877  -0.3031595  -0.1619659), wk =   0.0833333
        k(   10) = (  -0.5250877   0.1010532   0.0000000), wk =   0.1666667
        k(   11) = (  -0.5250877   0.1010532   0.0809829), wk =   0.3333333
        k(   12) = (  -0.5250877   0.1010532  -0.1619659), wk =   0.1666667

     negative rho (up, down):  0.334E+00 0.000E+00
     extrapolated charge   44.33418, renormalised to   52.00000

     total cpu time spent up to now is        7.6 secs

     Self-consistent Calculation

     iteration #  1     ecut=    40.00 Ry     beta=0.70
     CG style diagonalization
     c_bands:  4 eigenvalues not converged
     c_bands:  2 eigenvalues not converged
     c_bands:  2 eigenvalues not converged
     c_bands:  1 eigenvalues not converged
     c_bands:  4 eigenvalues not converged
     c_bands:  1 eigenvalues not converged
     ethr =  1.00E-06,  avg # of iterations = 12.7

     negative rho (up, down):  0.632E-02 0.000E+00

     total cpu time spent up to now is        9.3 secs

     total energy              =    -369.50482249 Ry
     Harris-Foulkes estimate   =    -376.12981547 Ry
     estimated scf accuracy    <       2.36233145 Ry

     iteration #  2     ecut=    40.00 Ry     beta=0.70
     CG style diagonalization
     ethr =  4.54E-03,  avg # of iterations =  4.5

     total cpu time spent up to now is        9.9 secs

     total energy              =    -371.66631965 Ry
     Harris-Foulkes estimate   =    -372.39683177 Ry
     estimated scf accuracy    <       1.50474956 Ry

     iteration #  3     ecut=    40.00 Ry     beta=0.70
     CG style diagonalization
     ethr =  2.89E-03,  avg # of iterations =  3.4

     total cpu time spent up to now is       10.3 secs

     total energy              =    -371.67387558 Ry
     Harris-Foulkes estimate   =    -371.81168423 Ry
     estimated scf accuracy    <       0.21002470 Ry

     iteration #  4     ecut=    40.00 Ry     beta=0.70
     CG style diagonalization
     ethr =  4.04E-04,  avg # of iterations =  4.4

     total cpu time spent up to now is       10.9 secs

     total energy              =    -371.75221887 Ry
     Harris-Foulkes estimate   =    -371.78336156 Ry
     estimated scf accuracy    <       0.15864841 Ry

     iteration #  5     ecut=    40.00 Ry     beta=0.70
     CG style diagonalization
     ethr =  3.05E-04,  avg # of iterations =  3.1

     total cpu time spent up to now is       11.4 secs

     total energy              =    -371.75600741 Ry
     Harris-Foulkes estimate   =    -371.76751331 Ry
     estimated scf accuracy    <       0.02652345 Ry

     iteration #  6     ecut=    40.00 Ry     beta=0.70
     CG style diagonalization
     ethr =  5.10E-05,  avg # of iterations =  3.7

     total cpu time spent up to now is       11.9 secs

     total energy              =    -371.75832033 Ry
     Harris-Foulkes estimate   =    -371.75987383 Ry
     estimated scf accuracy    <       0.00635337 Ry

     iteration #  7     ecut=    40.00 Ry     beta=0.70
     CG style diagonalization
     c_bands:  1 eigenvalues not converged
     ethr =  1.22E-05,  avg # of iterations =  3.5

     total cpu time spent up to now is       12.3 secs

     total energy              =    -371.75773617 Ry
     Harris-Foulkes estimate   =    -371.75888874 Ry
     estimated scf accuracy    <       0.00323915 Ry

     iteration #  8     ecut=    40.00 Ry     beta=0.70
     CG style diagonalization
     ethr =  6.23E-06,  avg # of iterations =  3.3

     total cpu time spent up to now is       12.8 secs

     total energy              =    -371.75766206 Ry
     Harris-Foulkes estimate   =    -371.75804045 Ry
     estimated scf accuracy    <       0.00059015 Ry

     iteration #  9     ecut=    40.00 Ry     beta=0.70
     CG style diagonalization
     ethr =  1.13E-06,  avg # of iterations =  4.6

     total cpu time spent up to now is       13.4 secs

     total energy              =    -371.75789109 Ry
     Harris-Foulkes estimate   =    -371.75792718 Ry
     estimated scf accuracy    <       0.00015623 Ry

     iteration # 10     ecut=    40.00 Ry     beta=0.70
     CG style diagonalization
     ethr =  3.00E-07,  avg # of iterations =  3.4

     total cpu time spent up to now is       13.9 secs

     End of self-consistent calculation

          k = 0.0000 0.0000 0.0000 (  4167 PWs)   bands (ev):

   -29.8075 -29.7480 -29.7456 -29.6841 -10.0046  -9.5433  -9.5417  -9.1982
    -9.1982  -9.1344  -9.1344  -9.1314  -9.1314  -9.0653  -9.0653  -9.0419
     9.1478  10.4349  10.4359  10.5303  13.0477  13.0871  13.2630  13.2630
    13.3135  13.3135  13.4359  13.6910  13.6910  13.7980  13.7980

          k = 0.0000 0.0000 0.0810 (  4186 PWs)   bands (ev):

   -29.8034 -29.7705 -29.7233 -29.6889  -9.9711  -9.7239  -9.3563  -9.1929
    -9.1929  -9.1586  -9.1585  -9.1074  -9.1074  -9.0825  -9.0710  -9.0710
     9.2629  10.0314  10.5560  10.6182  13.0060  13.3028  13.3028  13.3562
    13.3562  13.3565  13.5228  13.6232  13.6232  13.7183  13.7183

          k = 0.0000 0.0000-0.1620 (  4210 PWs)   bands (ev):

   -29.7903 -29.7903 -29.7033 -29.7033  -9.8745  -9.8745  -9.1944  -9.1944
    -9.1799  -9.1799  -9.1799  -9.1799  -9.0853  -9.0853  -9.0853  -9.0853
     9.5847   9.5847  10.6117  10.6117  13.1685  13.1685  13.3894  13.3895
    13.3894  13.3894  13.5808  13.5808  13.5808  13.5808  14.2715

          k = 0.0000 0.4042 0.0000 (  4204 PWs)   bands (ev):

   -29.7242 -29.6896 -29.6875 -29.6528  -9.8398  -9.8342  -9.6982  -9.6887
    -9.6376  -9.3628  -9.3408  -9.3045  -9.2616  -9.2597  -9.1611  -9.1559
    10.6777  10.8598  10.9513  11.4186  11.8309  11.8885  12.4270  13.0474
    13.1378  13.4766  13.6499  14.2041  14.6118  14.6561  14.7159

          k = 0.0000 0.4042 0.0810 (  4200 PWs)   bands (ev):

   -29.7214 -29.7022 -29.6748 -29.6555  -9.8519  -9.7906  -9.7762  -9.6648
    -9.5940  -9.4023  -9.3550  -9.3001  -9.2534  -9.2210  -9.1707  -9.1643
    10.7017  10.9255  10.9684  11.3532  11.5638  11.9435  12.5358  13.0191
    13.4247  13.5607  13.6275  14.1387  14.1962  14.5604  15.1956

          k = 0.0000 0.4042-0.1620 (  4196 PWs)   bands (ev):

   -29.7138 -29.7138 -29.6630 -29.6630  -9.8311  -9.8311  -9.7262  -9.7262
    -9.4925  -9.4925  -9.3327  -9.3327  -9.2022  -9.2022  -9.1872  -9.1872
    10.8128  10.8128  11.1632  11.1632  11.6445  11.6445  12.8843  12.8843
    13.6057  13.6057  13.8076  13.8076  14.2953  14.2953  15.6081

          k =-0.5251-0.3032 0.0000 (  4208 PWs)   bands (ev):

   -29.6898 -29.6697 -29.6678 -29.6484  -9.9928  -9.9718  -9.8392  -9.8130
    -9.5166  -9.4360  -9.4129  -9.3031  -9.3012  -9.2980  -9.2077  -9.1893
    10.4562  10.4975  10.7153  11.2357  11.5350  11.9841  12.1423  12.8125
    13.2354  13.4901  14.1235  14.7354  14.7545  15.6744  16.3024

          k =-0.5251-0.3032 0.0810 (  4222 PWs)   bands (ev):

   -29.6880 -29.6769 -29.6613 -29.6502  -9.9781  -9.9583  -9.8641  -9.8394
    -9.4898  -9.4265  -9.4053  -9.3453  -9.2956  -9.2596  -9.2249  -9.1976
    10.5490  10.5871  10.7691  11.1051  11.3961  11.4700  12.6449  12.7742
    13.3346  13.9662  14.1053  14.1553  15.2563  15.5098  15.8051

          k =-0.5251-0.3032-0.1620 (  4204 PWs)   bands (ev):

   -29.6833 -29.6833 -29.6545 -29.6545  -9.9464  -9.9464  -9.8833  -9.8833
    -9.4415  -9.4415  -9.3811  -9.3811  -9.2658  -9.2658  -9.2224  -9.2224
    10.7286  10.7286  10.8885  10.8885  11.1719  11.1719  12.8553  12.8553
    13.6286  13.6286  14.4470  14.4470  14.9745  14.9745  16.3317

          k =-0.5251 0.1011 0.0000 (  4215 PWs)   bands (ev):

   -29.6896 -29.6702 -29.6680 -29.6484  -9.9027  -9.8834  -9.7597  -9.7442
    -9.5984  -9.5015  -9.4383  -9.4242  -9.3028  -9.3004  -9.2404  -9.2227
    10.9158  11.0043  11.3669  11.8511  11.9415  12.0505  12.1547  12.6021
    12.8371  13.1787  13.7256  13.9840  14.3252  14.7810  15.0791

          k =-0.5251 0.1011 0.0810 (  4211 PWs)   bands (ev):

   -29.6881 -29.6769 -29.6613 -29.6498  -9.8914  -9.8701  -9.7834  -9.7762
    -9.5550  -9.5065  -9.4310  -9.4057  -9.3419  -9.3127  -9.2286  -9.2152
    10.9878  11.0839  11.4222  11.5739  11.6814  11.9155  12.3639  12.8527
    13.0928  13.1592  13.6614  14.0027  14.2362  14.5557  15.3053

          k =-0.5251 0.1011-0.1620 (  4206 PWs)   bands (ev):

   -29.6835 -29.6835 -29.6544 -29.6544  -9.8623  -9.8623  -9.8097  -9.8097
    -9.5125  -9.5125  -9.4058  -9.4058  -9.3533  -9.3533  -9.2147  -9.2147
    11.1796  11.1796  11.3630  11.3630  11.6304  11.6304  12.7240  12.7240
    13.2969  13.2969  13.7972  13.7972  14.2743  14.2743  15.5472

     the Fermi energy is    13.6255 ev

!    total energy              =    -371.75790185 Ry
     Harris-Foulkes estimate   =    -371.75790945 Ry
     estimated scf accuracy    <       0.00000826 Ry

     The total energy is the sum of the following terms:

     one-electron contribution =     -42.89357453 Ry
     hartree contribution      =      42.57047563 Ry
     xc contribution           =     -44.83238638 Ry
     ewald contribution        =    -326.18092520 Ry
     smearing contrib. (-TS)   =      -0.42149137 Ry

     convergence has been achieved in  10 iterations

     Forces acting on atoms (Ry/au):

     atom    1 type  1   force =     0.00000000    0.00000000    0.00000000
     atom    2 type  1   force =     0.00000000    0.00000000    0.00000000
     atom    3 type  1   force =     0.00000000    0.00000000    0.00000000
     atom    4 type  1   force =     0.00000000    0.00000000    0.00000000

     Total force =     0.000000     Total SCF correction =     0.000000


     entering subroutine stress ...

          total   stress  (Ry/bohr**3)                   (kbar)     P= -216.44
  -0.00166896   0.00000000   0.00000000       -245.51      0.00      0.00
   0.00000000  -0.00166896   0.00000000          0.00   -245.51      0.00
   0.00000000   0.00000000  -0.00107614          0.00      0.00   -158.31


     number of scf cycles    =   2
     number of bfgs steps    =   1

     enthalpy old            =    -371.5477410661 Ry
     enthalpy new            =    -371.7579018546 Ry

     CASE: enthalpy_new < enthalpy_old

     small trust_radius: resetting bfgs history

     new trust radius        =       0.2444098541 bohr
     new conv_thr            =       0.0000010000 Ry

     new unit-cell volume =    766.55389 a.u.^3 (   113.59157 Ang^3 )

CELL_PARAMETERS (alat=  7.07322357)
   0.912491354   0.000000000   0.000000000
  -0.456245677   0.790240693   0.000000000
   0.000000000   0.000000000   3.004017020

ATOMIC_POSITIONS (crystal)
Pr       0.000000000   0.000000000   0.000000000
Pr       0.000000000   0.000000000   0.500000000
Pr       0.333333000   0.666667000   0.250000000
Pr       0.666667000   0.333333000   0.750000000



     Writing output data file Element-Pr.q.save
     NEW-OLD atomic charge density approx. for the potential
     NEW k-points:
        k(    1) = (   0.0000000   0.0000000   0.0000000), wk =   0.0833333
        k(    2) = (   0.0000000   0.0000000   0.0832219), wk =   0.1666667
        k(    3) = (   0.0000000   0.0000000  -0.1664438), wk =   0.0833333
        k(    4) = (   0.0000000   0.4218124   0.0000000), wk =   0.1666667
        k(    5) = (   0.0000000   0.4218124   0.0832219), wk =   0.3333333
        k(    6) = (   0.0000000   0.4218124  -0.1664438), wk =   0.1666667
        k(    7) = (  -0.5479504  -0.3163593   0.0000000), wk =   0.0833333
        k(    8) = (  -0.5479504  -0.3163593   0.0832219), wk =   0.1666667
        k(    9) = (  -0.5479504  -0.3163593  -0.1664438), wk =   0.0833333
        k(   10) = (  -0.5479504   0.1054531   0.0000000), wk =   0.1666667
        k(   11) = (  -0.5479504   0.1054531   0.0832219), wk =   0.3333333
        k(   12) = (  -0.5479504   0.1054531  -0.1664438), wk =   0.1666667

     negative rho (up, down):  0.202E+00 0.000E+00
     extrapolated charge   45.81212, renormalised to   52.00000

     total cpu time spent up to now is       14.2 secs

     Self-consistent Calculation

     iteration #  1     ecut=    40.00 Ry     beta=0.70
     CG style diagonalization
     c_bands:  1 eigenvalues not converged
     c_bands:  2 eigenvalues not converged
     c_bands:  1 eigenvalues not converged
     c_bands:  3 eigenvalues not converged
     c_bands:  2 eigenvalues not converged
     c_bands:  1 eigenvalues not converged
     c_bands:  2 eigenvalues not converged
     c_bands:  3 eigenvalues not converged
     c_bands:  4 eigenvalues not converged
     ethr =  1.00E-06,  avg # of iterations = 10.7

     negative rho (up, down):  0.427E-03 0.000E+00

     total cpu time spent up to now is       15.7 secs

     total energy              =    -370.74335279 Ry
     Harris-Foulkes estimate   =    -374.06950274 Ry
     estimated scf accuracy    <       1.19963999 Ry

     iteration #  2     ecut=    40.00 Ry     beta=0.70
     CG style diagonalization
     ethr =  2.31E-03,  avg # of iterations =  4.4

     total cpu time spent up to now is       16.3 secs

     total energy              =    -371.83654311 Ry
     Harris-Foulkes estimate   =    -372.16819310 Ry
     estimated scf accuracy    <       0.67835472 Ry

     iteration #  3     ecut=    40.00 Ry     beta=0.70
     CG style diagonalization
     ethr =  1.30E-03,  avg # of iterations =  3.4

     total cpu time spent up to now is       16.7 secs

     total energy              =    -371.87117840 Ry
     Harris-Foulkes estimate   =    -371.91178432 Ry
     estimated scf accuracy    <       0.10836116 Ry

     iteration #  4     ecut=    40.00 Ry     beta=0.70
     CG style diagonalization
     ethr =  2.08E-04,  avg # of iterations =  3.7

     total cpu time spent up to now is       17.2 secs

     total energy              =    -371.85992210 Ry
     Harris-Foulkes estimate   =    -371.90346404 Ry
     estimated scf accuracy    <       0.11928623 Ry

     iteration #  5     ecut=    40.00 Ry     beta=0.70
     CG style diagonalization
     ethr =  2.08E-04,  avg # of iterations =  3.6

     total cpu time spent up to now is       17.7 secs

     total energy              =    -371.88098405 Ry
     Harris-Foulkes estimate   =    -371.88316436 Ry
     estimated scf accuracy    <       0.00441986 Ry

     iteration #  6     ecut=    40.00 Ry     beta=0.70
     CG style diagonalization
     c_bands:  1 eigenvalues not converged
     ethr =  8.50E-06,  avg # of iterations =  4.4

     total cpu time spent up to now is       18.3 secs

     total energy              =    -371.88244285 Ry
     Harris-Foulkes estimate   =    -371.88259532 Ry
     estimated scf accuracy    <       0.00156093 Ry

     iteration #  7     ecut=    40.00 Ry     beta=0.70
     CG style diagonalization
     ethr =  3.00E-06,  avg # of iterations =  3.1

     total cpu time spent up to now is       18.7 secs

     total energy              =    -371.88206810 Ry
     Harris-Foulkes estimate   =    -371.88249155 Ry
     estimated scf accuracy    <       0.00129912 Ry

     iteration #  8     ecut=    40.00 Ry     beta=0.70
     CG style diagonalization
     ethr =  2.50E-06,  avg # of iterations =  3.1

     total cpu time spent up to now is       19.1 secs

     total energy              =    -371.88201333 Ry
     Harris-Foulkes estimate   =    -371.88215300 Ry
     estimated scf accuracy    <       0.00026277 Ry

     iteration #  9     ecut=    40.00 Ry     beta=0.70
     CG style diagonalization
     ethr =  5.05E-07,  avg # of iterations =  4.3

     total cpu time spent up to now is       19.6 secs

     total energy              =    -371.88209781 Ry
     Harris-Foulkes estimate   =    -371.88209989 Ry
     estimated scf accuracy    <       0.00003470 Ry

     iteration # 10     ecut=    40.00 Ry     beta=0.70
     CG style diagonalization
     ethr =  6.67E-08,  avg # of iterations =  3.4

     total cpu time spent up to now is       20.1 secs

     total energy              =    -371.88209290 Ry
     Harris-Foulkes estimate   =    -371.88210056 Ry
     estimated scf accuracy    <       0.00002704 Ry

     iteration # 11     ecut=    40.00 Ry     beta=0.70
     CG style diagonalization
     ethr =  5.20E-08,  avg # of iterations =  3.4

     total cpu time spent up to now is       20.5 secs

     total energy              =    -371.88209510 Ry
     Harris-Foulkes estimate   =    -371.88209693 Ry
     estimated scf accuracy    <       0.00000285 Ry

     iteration # 12     ecut=    40.00 Ry     beta=0.70
     CG style diagonalization
     ethr =  5.47E-09,  avg # of iterations =  5.1

     total cpu time spent up to now is       21.2 secs

     total energy              =    -371.88209678 Ry
     Harris-Foulkes estimate   =    -371.88209845 Ry
     estimated scf accuracy    <       0.00001209 Ry

     iteration # 13     ecut=    40.00 Ry     beta=0.70
     CG style diagonalization
     ethr =  5.47E-09,  avg # of iterations =  3.3

     total cpu time spent up to now is       21.6 secs

     total energy              =    -371.88209607 Ry
     Harris-Foulkes estimate   =    -371.88209713 Ry
     estimated scf accuracy    <       0.00000355 Ry

     iteration # 14     ecut=    40.00 Ry     beta=0.70
     CG style diagonalization
     ethr =  5.47E-09,  avg # of iterations =  3.9

     total cpu time spent up to now is       22.1 secs

     End of self-consistent calculation

          k = 0.0000 0.0000 0.0000 (  4167 PWs)   bands (ev):

   -27.7015 -27.6098 -27.6088 -27.5138  -8.1054  -7.4725  -7.4713  -6.9290
    -6.9290  -6.8441  -6.8441  -6.8437  -6.8437  -6.7733  -6.7566  -6.7566
    10.9619  12.1790  12.2756  12.2791  14.9743  15.0187  15.2064  15.2064
    15.2289  15.2830  15.2830  15.6673  15.6673  15.8017  15.8017

          k = 0.0000 0.0000 0.0832 (  4186 PWs)   bands (ev):

   -27.6951 -27.6452 -27.5734 -27.5211  -8.0593  -7.7212  -7.2134  -6.9225
    -6.9225  -6.8769  -6.8769  -6.8297  -6.8108  -6.8108  -6.7635  -6.7635
    11.0914  11.9162  12.2137  12.3705  14.8223  15.1446  15.2481  15.2481
    15.3233  15.3233  15.6036  15.6036  15.6161  15.7213  15.7213

          k = 0.0000 0.0000-0.1664 (  4210 PWs)   bands (ev):

   -27.6752 -27.6752 -27.5428 -27.5428  -7.9263  -7.9263  -6.9865  -6.9865
    -6.9045  -6.9045  -6.9045  -6.9045  -6.7824  -6.7824  -6.7824  -6.7824
    11.4478  11.4478  12.3004  12.3004  14.9531  14.9531  15.3390  15.3390
    15.3390  15.3390  15.5800  15.5800  15.5800  15.5800  16.4920

          k = 0.0000 0.4218 0.0000 (  4204 PWs)   bands (ev):

   -27.5634 -27.5096 -27.5084 -27.4542  -7.8730  -7.8710  -7.6777  -7.6763
    -7.6117  -7.1847  -7.1705  -7.1353  -7.0355  -7.0349  -6.9273  -6.8953
    12.3891  12.5037  12.5774  13.1869  13.4830  13.6558  14.3038  15.0119
    15.0692  15.5024  15.6201  16.4864  16.8574  16.9048  16.9144

          k = 0.0000 0.4218 0.0832 (  4200 PWs)   bands (ev):

   -27.5592 -27.5298 -27.4881 -27.4584  -7.8913  -7.8121  -7.7882  -7.6474
    -7.5410  -7.2742  -7.1603  -7.0875  -7.0610  -6.9823  -6.9416  -6.9062
    12.4111  12.5618  12.6689  13.0497  13.2331  13.6959  14.3750  14.8961
    15.5217  15.5983  15.6322  16.3246  16.3735  16.8561  17.4735

          k = 0.0000 0.4218-0.1664 (  4196 PWs)   bands (ev):

   -27.5475 -27.5475 -27.4701 -27.4701  -7.8630  -7.8630  -7.7269  -7.7269
    -7.4014  -7.4014  -7.1312  -7.1312  -6.9870  -6.9870  -6.9369  -6.9369
    12.5357  12.5357  12.8101  12.8101  13.3445  13.3445  14.7193  14.7193
    15.7453  15.7453  15.8803  15.8803  16.5168  16.5168  17.9527

          k =-0.5480-0.3164 0.0000 (  4208 PWs)   bands (ev):

   -27.5064 -27.4756 -27.4741 -27.4438  -8.1048  -8.0711  -7.9064  -7.8638
    -7.4217  -7.3076  -7.2438  -7.1226  -7.0972  -7.0966  -6.9932  -6.9448
    11.9846  12.0757  12.2736  12.8541  13.1595  13.7386  13.8828  14.6383
    15.2215  15.6173  16.2078  16.9217  16.9371  18.1392  18.8479

          k =-0.5480-0.3164 0.0832 (  4222 PWs)   bands (ev):

   -27.5038 -27.4870 -27.4634 -27.4465  -8.0862  -8.0545  -7.9352  -7.8966
    -7.3871  -7.2986  -7.2331  -7.1539  -7.1168  -7.0394  -7.0171  -6.9564
    12.0914  12.1577  12.3591  12.7128  13.0391  13.1345  14.4332  14.5584
    15.3337  16.1635  16.2055  16.2792  17.6161  17.7977  18.2653

          k =-0.5480-0.3164-0.1664 (  4204 PWs)   bands (ev):

   -27.4968 -27.4968 -27.4531 -27.4531  -8.0457  -8.0457  -7.9523  -7.9523
    -7.3236  -7.3236  -7.2014  -7.2014  -7.0739  -7.0739  -6.9898  -6.9898
    12.2737  12.2737  12.5618  12.5618  12.7552  12.7552  14.6263  14.6263
    15.6662  15.6662  16.7082  16.7082  17.2688  17.2688  18.7417

          k =-0.5480 0.1055 0.0000 (  4215 PWs)   bands (ev):

   -27.5065 -27.4758 -27.4746 -27.4436  -7.9718  -7.9423  -7.7866  -7.7599
    -7.5286  -7.3842  -7.3053  -7.2881  -7.1227  -7.1134  -7.0367  -7.0106
    12.5118  12.6844  13.0481  13.5507  13.7199  13.9385  13.9667  14.4083
    14.8093  15.1121  15.8394  16.0093  16.5462  16.9938  17.2364

          k =-0.5480 0.1055 0.0832 (  4211 PWs)   bands (ev):

   -27.5041 -27.4871 -27.4633 -27.4459  -7.9564  -7.9266  -7.8137  -7.8003
    -7.4739  -7.3945  -7.2947  -7.2616  -7.1764  -7.1328  -7.0184  -7.0004
    12.5983  12.7601  13.1155  13.2825  13.4954  13.6572  14.1698  14.7445
    14.9852  15.2087  15.7227  16.0726  16.4175  16.7527  17.5192

          k =-0.5480 0.1055-0.1664 (  4206 PWs)   bands (ev):

   -27.4972 -27.4972 -27.4528 -27.4528  -7.9191  -7.9191  -7.8436  -7.8436
    -7.4109  -7.4109  -7.2624  -7.2624  -7.1897  -7.1897  -6.9990  -6.9990
    12.8056  12.8056  13.1379  13.1379  13.3312  13.3312  14.5681  14.5681
    15.2866  15.2866  15.9037  15.9037  16.4273  16.4273  17.7890

     the Fermi energy is    15.6436 ev

!    total energy              =    -371.88209642 Ry
     Harris-Foulkes estimate   =    -371.88209692 Ry
     estimated scf accuracy    <       0.00000054 Ry

     The total energy is the sum of the following terms:

     one-electron contribution =     -25.63727920 Ry
     hartree contribution      =      38.05967354 Ry
     xc contribution           =     -45.27820927 Ry
     ewald contribution        =    -338.64687706 Ry
     smearing contrib. (-TS)   =      -0.37940443 Ry

     convergence has been achieved in  14 iterations

     Forces acting on atoms (Ry/au):

     atom    1 type  1   force =     0.00000000    0.00000000    0.00000000
     atom    2 type  1   force =     0.00000000    0.00000000    0.00000000
     atom    3 type  1   force =     0.00000000    0.00000000    0.00000000
     atom    4 type  1   force =     0.00000000    0.00000000    0.00000000

     Total force =     0.000000     Total SCF correction =     0.000000


     entering subroutine stress ...

          total   stress  (Ry/bohr**3)                   (kbar)     P= -161.32
  -0.00139696   0.00000000   0.00000000       -205.50      0.00      0.00
   0.00000000  -0.00139696   0.00000000          0.00   -205.50      0.00
   0.00000000   0.00000000  -0.00049601          0.00      0.00    -72.97


     number of scf cycles    =   3
     number of bfgs steps    =   2

     enthalpy old            =    -371.7579018546 Ry
     enthalpy new            =    -371.8820964194 Ry

     CASE: enthalpy_new < enthalpy_old

     Message from routine bfgs:
     history already reset at previous step: stopping
     small trust_radius: resetting bfgs history

     new trust radius        =       0.1933859038 bohr
     new conv_thr            =       0.0000010000 Ry

     new unit-cell volume =    705.09349 a.u.^3 (   104.48407 Ang^3 )

CELL_PARAMETERS (alat=  7.07322357)
   0.880623543   0.000000000   0.000000000
  -0.440311771   0.762642359   0.000000000
   0.000000000   0.000000000   2.966766275

ATOMIC_POSITIONS (crystal)
Pr       0.000000000   0.000000000   0.000000000
Pr       0.000000000   0.000000000   0.500000000
Pr       0.333333000   0.666667000   0.250000000
Pr       0.666667000   0.333333000   0.750000000



     Writing output data file Element-Pr.q.save
     NEW-OLD atomic charge density approx. for the potential
     NEW k-points:
        k(    1) = (   0.0000000   0.0000000   0.0000000), wk =   0.0833333
        k(    2) = (   0.0000000   0.0000000   0.0842668), wk =   0.1666667
        k(    3) = (   0.0000000   0.0000000  -0.1685337), wk =   0.0833333
        k(    4) = (   0.0000000   0.4370769   0.0000000), wk =   0.1666667
        k(    5) = (   0.0000000   0.4370769   0.0842668), wk =   0.3333333
        k(    6) = (   0.0000000   0.4370769  -0.1685337), wk =   0.1666667
        k(    7) = (  -0.5677795  -0.3278077   0.0000000), wk =   0.0833333
        k(    8) = (  -0.5677795  -0.3278077   0.0842668), wk =   0.1666667
        k(    9) = (  -0.5677795  -0.3278077  -0.1685337), wk =   0.0833333
        k(   10) = (  -0.5677795   0.1092692   0.0000000), wk =   0.1666667
        k(   11) = (  -0.5677795   0.1092692   0.0842668), wk =   0.3333333
        k(   12) = (  -0.5677795   0.1092692  -0.1685337), wk =   0.1666667

     negative rho (up, down):  0.807E-01 0.000E+00
     extrapolated charge   47.47065, renormalised to   52.00000

     total cpu time spent up to now is       22.4 secs

     Self-consistent Calculation

     iteration #  1     ecut=    40.00 Ry     beta=0.70
     CG style diagonalization
     c_bands:  1 eigenvalues not converged
     c_bands:  2 eigenvalues not converged
     c_bands:  1 eigenvalues not converged
     c_bands:  1 eigenvalues not converged
     ethr =  1.00E-06,  avg # of iterations =  9.2

     total cpu time spent up to now is       23.7 secs

     total energy              =    -371.45589785 Ry
     Harris-Foulkes estimate   =    -372.83468287 Ry
     estimated scf accuracy    <       0.51936727 Ry

     iteration #  2     ecut=    40.00 Ry     beta=0.70
     CG style diagonalization
     ethr =  9.99E-04,  avg # of iterations =  4.3

     total cpu time spent up to now is       24.2 secs

     total energy              =    -371.93495159 Ry
     Harris-Foulkes estimate   =    -372.06662353 Ry
     estimated scf accuracy    <       0.26775540 Ry

     iteration #  3     ecut=    40.00 Ry     beta=0.70
     CG style diagonalization
     ethr =  5.15E-04,  avg # of iterations =  3.4

     total cpu time spent up to now is       24.8 secs

     total energy              =    -371.93988523 Ry
     Harris-Foulkes estimate   =    -371.96118336 Ry
     estimated scf accuracy    <       0.03354262 Ry

     iteration #  4     ecut=    40.00 Ry     beta=0.70
     CG style diagonalization
     ethr =  6.45E-05,  avg # of iterations =  4.2

     total cpu time spent up to now is       25.4 secs

     total energy              =    -371.94992737 Ry
     Harris-Foulkes estimate   =    -371.95438925 Ry
     estimated scf accuracy    <       0.01844010 Ry

     iteration #  5     ecut=    40.00 Ry     beta=0.70
     CG style diagonalization
     ethr =  3.55E-05,  avg # of iterations =  3.1

     total cpu time spent up to now is       25.8 secs

     total energy              =    -371.95085756 Ry
     Harris-Foulkes estimate   =    -371.95195854 Ry
     estimated scf accuracy    <       0.00241568 Ry

     iteration #  6     ecut=    40.00 Ry     beta=0.70
     CG style diagonalization
     ethr =  4.65E-06,  avg # of iterations =  3.9

     total cpu time spent up to now is       26.3 secs

     total energy              =    -371.95113369 Ry
     Harris-Foulkes estimate   =    -371.95132126 Ry
     estimated scf accuracy    <       0.00062909 Ry

     iteration #  7     ecut=    40.00 Ry     beta=0.70
     CG style diagonalization
     ethr =  1.21E-06,  avg # of iterations =  3.3

     total cpu time spent up to now is       26.7 secs

     total energy              =    -371.95108658 Ry
     Harris-Foulkes estimate   =    -371.95118297 Ry
     estimated scf accuracy    <       0.00024369 Ry

     iteration #  8     ecut=    40.00 Ry     beta=0.70
     CG style diagonalization
     ethr =  4.69E-07,  avg # of iterations =  3.6

     total cpu time spent up to now is       27.2 secs

     total energy              =    -371.95111496 Ry
     Harris-Foulkes estimate   =    -371.95112420 Ry
     estimated scf accuracy    <       0.00001316 Ry

     iteration #  9     ecut=    40.00 Ry     beta=0.70
     CG style diagonalization
     ethr =  2.53E-08,  avg # of iterations =  5.1

     total cpu time spent up to now is       27.9 secs

     total energy              =    -371.95112342 Ry
     Harris-Foulkes estimate   =    -371.95112959 Ry
     estimated scf accuracy    <       0.00001428 Ry

     iteration # 10     ecut=    40.00 Ry     beta=0.70
     CG style diagonalization
     ethr =  2.53E-08,  avg # of iterations =  3.7

     total cpu time spent up to now is       28.4 secs

     End of self-consistent calculation

          k = 0.0000 0.0000 0.0000 (  4167 PWs)   bands (ev):

   -26.0464 -25.9320 -25.9237 -25.8046  -6.6120  -5.8426  -5.8349  -5.0654
    -5.0654  -4.9735  -4.9727  -4.9727  -4.9653  -4.9653  -4.8702  -4.8702
    12.4946  13.5517  13.7837  13.7914  16.5123  16.5396  16.5576  16.8059
    16.8059  16.9121  16.9121  17.2618  17.2618  17.4220  17.4220

          k = 0.0000 0.0000 0.0843 (  4186 PWs)   bands (ev):

   -26.0380 -25.9741 -25.8813 -25.8141  -6.5559  -6.1440  -5.5204  -5.0581
    -5.0581  -5.0437  -5.0064  -5.0064  -4.9313  -4.9313  -4.8778  -4.8778
    12.6352  13.4864  13.5909  13.8050  16.2254  16.4607  16.8457  16.8457
    16.9428  16.9428  17.2134  17.2134  17.3010  17.3498  17.3498

          k = 0.0000 0.0000-0.1685 (  4210 PWs)   bands (ev):

   -26.0126 -26.0126 -25.8418 -25.8418  -6.3938  -6.3938  -5.2390  -5.2390
    -5.0376  -5.0376  -5.0376  -5.0376  -4.8993  -4.8993  -4.8993  -4.8993
    13.0153  13.0153  13.6941  13.6941  16.2918  16.2918  16.9339  16.9339
    16.9339  16.9339  17.2178  17.2178  17.2178  17.2178  18.2709

          k = 0.0000 0.4371 0.0000 (  4204 PWs)   bands (ev):

   -25.8442 -25.7781 -25.7696 -25.7026  -6.3350  -6.3262  -6.1157  -6.0738
    -6.0378  -5.4785  -5.4208  -5.3891  -5.2358  -5.2287  -5.1442  -5.0692
    13.7417  13.8271  13.9055  14.5598  14.7798  15.1148  15.7879  16.4920
    16.6683  17.2210  17.2662  18.4234  18.6976  18.7450  18.8293

          k = 0.0000 0.4371 0.0843 (  4200 PWs)   bands (ev):

   -25.8388 -25.8011 -25.7464 -25.7080  -6.3519  -6.2651  -6.2258  -6.0780
    -5.9287  -5.5978  -5.3774  -5.3207  -5.2930  -5.1705  -5.1638  -5.0819
    13.7759  13.8468  14.0665  14.3810  14.5963  15.0797  15.8297  16.3282
    17.2015  17.3246  17.3612  18.1109  18.2514  18.7801  19.3662

          k = 0.0000 0.4371-0.1685 (  4196 PWs)   bands (ev):

   -25.8238 -25.8238 -25.7232 -25.7232  -6.3182  -6.3182  -6.1654  -6.1654
    -5.7586  -5.7586  -5.3437  -5.3437  -5.2238  -5.2238  -5.1177  -5.1177
    13.8885  13.8885  14.1647  14.1647  14.7015  14.7015  16.1216  16.1216
    17.5724  17.5724  17.6296  17.6296  18.3328  18.3328  19.8957

          k =-0.5678-0.3278 0.0000 (  4208 PWs)   bands (ev):

   -25.7614 -25.7254 -25.7165 -25.6807  -6.6538  -6.6032  -6.4345  -6.3724
    -5.7543  -5.6071  -5.4867  -5.3963  -5.3198  -5.3128  -5.2291  -5.1386
    13.2110  13.3326  13.5435  14.1209  14.4199  15.0964  15.2389  16.0649
    16.9050  17.3680  17.8656  18.7270  18.7349  20.1979  20.9650

          k =-0.5678-0.3278 0.0843 (  4222 PWs)   bands (ev):

   -25.7582 -25.7370 -25.7054 -25.6841  -6.6334  -6.5876  -6.4602  -6.4059
    -5.7174  -5.6061  -5.4741  -5.3831  -5.3825  -5.2575  -5.2492  -5.1524
    13.3269  13.4041  13.6518  13.9739  14.3330  14.4487  15.7899  15.9424
    17.0251  17.9573  17.9587  17.9895  19.5464  19.6596  20.2821

          k =-0.5678-0.3278-0.1685 (  4204 PWs)   bands (ev):

   -25.7494 -25.7494 -25.6926 -25.6926  -6.5888  -6.5888  -6.4657  -6.4657
    -5.6454  -5.6454  -5.4376  -5.4376  -5.3255  -5.3255  -5.1914  -5.1914
    13.5097  13.5097  13.8942  13.8942  14.0147  14.0147  15.9679  15.9679
    17.3808  17.3808  18.5563  18.5563  19.1249  19.1249  20.6751

          k =-0.5678 0.1093 0.0000 (  4215 PWs)   bands (ev):

   -25.7621 -25.7257 -25.7170 -25.6802  -6.4734  -6.4313  -6.2686  -6.2267
    -5.8757  -5.6911  -5.6023  -5.5894  -5.3874  -5.3725  -5.2841  -5.2436
    13.7950  14.0421  14.4325  14.9111  15.1367  15.3603  15.5319  15.8556
    16.4373  16.6717  17.5516  17.6755  18.3911  18.8224  18.9295

          k =-0.5678 0.1093 0.0843 (  4211 PWs)   bands (ev):

   -25.7590 -25.7373 -25.7053 -25.6832  -6.4556  -6.4164  -6.2944  -6.2666
    -5.8187  -5.7088  -5.5927  -5.5519  -5.4532  -5.3969  -5.2577  -5.2333
    13.8897  14.1100  14.5029  14.6670  14.9579  15.0650  15.6130  16.2870
    16.4657  16.8944  17.4013  17.7728  18.2160  18.5735  19.2899

          k =-0.5678 0.1093-0.1685 (  4206 PWs)   bands (ev):

   -25.7502 -25.7502 -25.6921 -25.6921  -6.4141  -6.4141  -6.3160  -6.3160
    -5.7407  -5.7407  -5.5540  -5.5540  -5.4657  -5.4657  -5.2324  -5.2324
    14.1088  14.1088  14.5812  14.5812  14.7188  14.7188  16.0334  16.0334
    16.8750  16.8750  17.6511  17.6511  18.2036  18.2036  19.5807

     the Fermi energy is    17.2955 ev

!    total energy              =    -371.95112616 Ry
     Harris-Foulkes estimate   =    -371.95112648 Ry
     estimated scf accuracy    <       0.00000037 Ry

     The total energy is the sum of the following terms:

     one-electron contribution =     -12.65342832 Ry
     hartree contribution      =      34.86416569 Ry
     xc contribution           =     -45.64934782 Ry
     ewald contribution        =    -348.17009388 Ry
     smearing contrib. (-TS)   =      -0.34242182 Ry

     convergence has been achieved in  10 iterations

     Forces acting on atoms (Ry/au):

     atom    1 type  1   force =     0.00000000    0.00000000    0.00000000
     atom    2 type  1   force =     0.00000000    0.00000000    0.00000000
     atom    3 type  1   force =     0.00000000    0.00000000    0.00000000
     atom    4 type  1   force =     0.00000000    0.00000000    0.00000000

     Total force =     0.000000     Total SCF correction =     0.000000


     entering subroutine stress ...

          total   stress  (Ry/bohr**3)                   (kbar)     P= -109.74
  -0.00114703   0.00000000   0.00000000       -168.73      0.00      0.00
   0.00000000  -0.00114703   0.00000000          0.00   -168.73      0.00
   0.00000000   0.00000000   0.00005606          0.00      0.00      8.25


     The maximum number of steps has been reached.

     End of BFGS Geometry Optimization
Begin final coordinates
     new unit-cell volume =    705.09349 a.u.^3 (   104.48407 Ang^3 )

CELL_PARAMETERS (alat=  7.07322357)
   0.880623543   0.000000000   0.000000000
  -0.440311771   0.762642359   0.000000000
   0.000000000   0.000000000   2.966766275

ATOMIC_POSITIONS (crystal)
Pr       0.000000000   0.000000000   0.000000000
Pr       0.000000000   0.000000000   0.500000000
Pr       0.333333000   0.666667000   0.250000000
Pr       0.666667000   0.333333000   0.750000000
End final coordinates



     A final scf calculation at the relaxed structure.
     The G-vectors are recalculated for the final unit cell
     Results may differ from those at the preceding step.
 
     Parallelization info
     --------------------
     sticks:   dense  smooth     PW     G-vecs:    dense   smooth      PW
     Min          21      21      6                 1205     1205     192
     Max          22      22      7                 1222     1222     209
     Sum         433     433    121                24181    24181    3911
 


     bravais-lattice index     =            0
     lattice parameter (alat)  =       7.0732  a.u.
     unit-cell volume          =     705.0935 (a.u.)^3
     number of atoms/cell      =            4
     number of atomic types    =            1
     number of electrons       =        52.00
     number of Kohn-Sham states=           31
     kinetic-energy cutoff     =      40.0000  Ry
     charge density cutoff     =     160.0000  Ry
     convergence threshold     =      1.0E-06
     mixing beta               =       0.7000
     number of iterations used =            8  plain     mixing
     Exchange-correlation      = SLA-PZ-NOGX-NOGC ( 1 1 0 0 0)
     EXX-fraction              =        0.00

     celldm(1)=   7.073224  celldm(2)=   0.000000  celldm(3)=   0.000000
     celldm(4)=   0.000000  celldm(5)=   0.000000  celldm(6)=   0.000000

     crystal axes: (cart. coord. in units of alat)
               a(1) = (   0.880624   0.000000   0.000000 )  
               a(2) = (  -0.440312   0.762642   0.000000 )  
               a(3) = (   0.000000   0.000000   2.966766 )  

     reciprocal axes: (cart. coord. in units 2 pi/alat)
               b(1) = (  1.135559  0.655615  0.000000 )  
               b(2) = (  0.000000  1.311231  0.000000 )  
               b(3) = (  0.000000  0.000000  0.337067 )  


     PseudoPot. # 1 for Pr read from file:
     /home/cwx6513/pp.La/Pr.UPF
     MD5 check sum: 70e2b4b153859e92c8c91247dfc63203
     Pseudo is Norm-conserving, Zval = 13.0
     Generated in analytical, separable form
     Using radial grid of 1255 points,  6 beta functions with: 
                l(1) =   0
                l(2) =   0
                l(3) =   1
                l(4) =   1
                l(5) =   2
                l(6) =   3

     atomic species   valence    mass     pseudopotential
        Pr            13.00   140.90800     Pr( 1.00)

     24 Sym. Ops., with inversion, found (12 have fractional translation)



   Cartesian axes

     site n.     atom                  positions (alat units)
         1           Pr  tau(   1) = (   0.0000000   0.0000000   0.0000000  )
         2           Pr  tau(   2) = (   0.0000000   0.0000000   1.4833831  )
         3           Pr  tau(   3) = (  -0.0000004   0.5084285   0.7416916  )
         4           Pr  tau(   4) = (   0.4403122   0.2542139   2.2250747  )

     number of k points=    12  gaussian smearing, width (Ry)=  0.1000
                       cart. coord. in units 2pi/alat
        k(    1) = (   0.0000000   0.0000000   0.0000000), wk =   0.0833333
        k(    2) = (   0.0000000   0.0000000   0.0842668), wk =   0.1666667
        k(    3) = (   0.0000000   0.0000000  -0.1685337), wk =   0.0833333
        k(    4) = (   0.0000000   0.4370769   0.0000000), wk =   0.1666667
        k(    5) = (   0.0000000   0.4370769   0.0842668), wk =   0.3333333
        k(    6) = (   0.0000000   0.4370769  -0.1685337), wk =   0.1666667
        k(    7) = (  -0.5677795  -0.3278077   0.0000000), wk =   0.0833333
        k(    8) = (  -0.5677795  -0.3278077   0.0842668), wk =   0.1666667
        k(    9) = (  -0.5677795  -0.3278077  -0.1685337), wk =   0.0833333
        k(   10) = (  -0.5677795   0.1092692   0.0000000), wk =   0.1666667
        k(   11) = (  -0.5677795   0.1092692   0.0842668), wk =   0.3333333
        k(   12) = (  -0.5677795   0.1092692  -0.1685337), wk =   0.1666667

     Dense  grid:    24181 G-vectors     FFT dimensions: (  25,  25,  90)

     Largest allocated arrays     est. size (Mb)     dimensions
        Kohn-Sham Wavefunctions         0.07 Mb     (    156,   31)
        NL pseudopotentials             0.19 Mb     (    156,   80)
        Each V/rho on FFT grid          0.05 Mb     (   3125)
        Each G-vector array             0.01 Mb     (   1212)
        G-vector shells                 0.00 Mb     (    549)
     Largest temporary arrays     est. size (Mb)     dimensions
        Each subspace H/S matrix        0.00 Mb     (  10,  10)
        Each <psi_i|beta_j> matrix      0.04 Mb     (     80,   31)
        Arrays for rho mixing           0.38 Mb     (   3125,   8)

     Initial potential from superposition of free atoms
     Check: negative starting charge=   -0.000704

     starting charge   51.96217, renormalised to   52.00000

     negative rho (up, down):  0.704E-03 0.000E+00
     Starting wfc are   80 randomized atomic wfcs

     Writing output data file Element-Pr.q.save

     total cpu time spent up to now is       29.2 secs

     Self-consistent Calculation

     iteration #  1     ecut=    40.00 Ry     beta=0.70
     CG style diagonalization
     c_bands:  5 eigenvalues not converged
     c_bands:  1 eigenvalues not converged
     c_bands:  2 eigenvalues not converged
     c_bands:  5 eigenvalues not converged
     c_bands:  3 eigenvalues not converged
     c_bands:  3 eigenvalues not converged
     c_bands:  2 eigenvalues not converged
     c_bands:  3 eigenvalues not converged
     c_bands:  1 eigenvalues not converged
     ethr =  1.00E-06,  avg # of iterations = 11.3

     negative rho (up, down):  0.949E-04 0.000E+00

     total cpu time spent up to now is       30.6 secs

     total energy              =    -369.51141028 Ry
     Harris-Foulkes estimate   =    -377.87957905 Ry
     estimated scf accuracy    <      11.19524524 Ry

     iteration #  2     ecut=    40.00 Ry     beta=0.70
     CG style diagonalization
     ethr =  1.00E-02,  avg # of iterations =  4.0

     negative rho (up, down):  0.166E-04 0.000E+00

     total cpu time spent up to now is       31.0 secs

     total energy              =    -371.82502260 Ry
     Harris-Foulkes estimate   =    -371.99601299 Ry
     estimated scf accuracy    <       0.39004176 Ry

     iteration #  3     ecut=    40.00 Ry     beta=0.70
     CG style diagonalization
     ethr =  7.50E-04,  avg # of iterations =  3.6

     total cpu time spent up to now is       31.4 secs

     total energy              =    -371.88715659 Ry
     Harris-Foulkes estimate   =    -371.88772988 Ry
     estimated scf accuracy    <       0.01940051 Ry

     iteration #  4     ecut=    40.00 Ry     beta=0.70
     CG style diagonalization
     ethr =  3.73E-05,  avg # of iterations =  3.5

     total cpu time spent up to now is       31.8 secs

     total energy              =    -371.88915877 Ry
     Harris-Foulkes estimate   =    -371.88940473 Ry
     estimated scf accuracy    <       0.00039487 Ry

     iteration #  5     ecut=    40.00 Ry     beta=0.70
     CG style diagonalization
     ethr =  7.59E-07,  avg # of iterations =  5.0

     total cpu time spent up to now is       32.5 secs

     total energy              =    -371.88933904 Ry
     Harris-Foulkes estimate   =    -371.88949006 Ry
     estimated scf accuracy    <       0.00052312 Ry

     iteration #  6     ecut=    40.00 Ry     beta=0.70
     CG style diagonalization
     ethr =  7.59E-07,  avg # of iterations =  3.5

     total cpu time spent up to now is       32.9 secs

     total energy              =    -371.88941593 Ry
     Harris-Foulkes estimate   =    -371.88942165 Ry
     estimated scf accuracy    <       0.00001432 Ry

     iteration #  7     ecut=    40.00 Ry     beta=0.70
     CG style diagonalization
     ethr =  2.75E-08,  avg # of iterations =  4.8

     total cpu time spent up to now is       33.5 secs

     total energy              =    -371.88942469 Ry
     Harris-Foulkes estimate   =    -371.88942560 Ry
     estimated scf accuracy    <       0.00000429 Ry

     iteration #  8     ecut=    40.00 Ry     beta=0.70
     CG style diagonalization
     ethr =  8.25E-09,  avg # of iterations =  3.3

     total cpu time spent up to now is       33.8 secs

     End of self-consistent calculation

          k = 0.0000 0.0000 0.0000 (  3031 PWs)   bands (ev):

   -26.0504 -25.9337 -25.9277 -25.8078  -6.5986  -5.8312  -5.8239  -5.0587
    -5.0587  -4.9663  -4.9631  -4.9631  -4.9557  -4.9557  -4.8588  -4.8588
    12.4978  13.5563  13.7898  13.7954  16.5269  16.5444  16.5690  16.8087
    16.8087  16.9143  16.9143  17.2688  17.2688  17.4281  17.4281

          k = 0.0000 0.0000 0.0843 (  3030 PWs)   bands (ev):

   -26.0412 -25.9770 -25.8842 -25.8172  -6.5441  -6.1350  -5.5092  -5.0495
    -5.0495  -5.0338  -4.9966  -4.9966  -4.9216  -4.9216  -4.8661  -4.8661
    12.6388  13.4905  13.5957  13.8102  16.2377  16.4683  16.8492  16.8492
    16.9457  16.9457  17.2198  17.2198  17.3158  17.3555  17.3555

          k = 0.0000 0.0000-0.1685 (  3030 PWs)   bands (ev):

   -26.0151 -26.0151 -25.8448 -25.8448  -6.3856  -6.3856  -5.2234  -5.2234
    -5.0310  -5.0310  -5.0310  -5.0310  -4.8867  -4.8867  -4.8867  -4.8867
    13.0193  13.0193  13.6991  13.6991  16.3034  16.3034  16.9376  16.9376
    16.9376  16.9376  17.2232  17.2232  17.2232  17.2232  18.2898

          k = 0.0000 0.4371 0.0000 (  3011 PWs)   bands (ev):

   -25.8470 -25.7792 -25.7738 -25.7043  -6.3260  -6.3178  -6.1044  -6.0610
    -6.0302  -5.4677  -5.4103  -5.3759  -5.2231  -5.2209  -5.1319  -5.0614
    13.7482  13.8330  13.9110  14.5692  14.7893  15.1238  15.7979  16.5085
    16.6817  17.2273  17.2788  18.4481  18.7171  18.7660  18.8576

          k = 0.0000 0.4371 0.0843 (  3021 PWs)   bands (ev):

   -25.8419 -25.8040 -25.7487 -25.7102  -6.3417  -6.2579  -6.2156  -6.0703
    -5.9188  -5.5846  -5.3653  -5.3115  -5.2827  -5.1618  -5.1534  -5.0747
    13.7816  13.8536  14.0728  14.3900  14.6044  15.0881  15.8407  16.3392
    17.2180  17.3323  17.3765  18.1255  18.2755  18.8057  19.3938

          k = 0.0000 0.4371-0.1685 (  3024 PWs)   bands (ev):

   -25.8269 -25.8269 -25.7256 -25.7256  -6.3083  -6.3083  -6.1583  -6.1583
    -5.7472  -5.7472  -5.3322  -5.3322  -5.2142  -5.2142  -5.1096  -5.1096
    13.8948  13.8948  14.1724  14.1724  14.7094  14.7094  16.1326  16.1326
    17.5901  17.5901  17.6402  17.6402  18.3543  18.3543  19.9328

          k =-0.5678-0.3278 0.0000 (  3028 PWs)   bands (ev):

   -25.7633 -25.7268 -25.7210 -25.6835  -6.6428  -6.5957  -6.4263  -6.3650
    -5.7454  -5.5956  -5.4781  -5.3875  -5.3109  -5.3060  -5.2194  -5.1284
    13.2147  13.3365  13.5462  14.1277  14.4248  15.1030  15.2508  16.0779
    16.9081  17.3882  17.8758  18.7449  18.7549  20.2439  21.0179

          k =-0.5678-0.3278 0.0843 (  3018 PWs)   bands (ev):

   -25.7604 -25.7393 -25.7079 -25.6865  -6.6233  -6.5809  -6.4508  -6.3983
    -5.7073  -5.5927  -5.4650  -5.3735  -5.3723  -5.2472  -5.2398  -5.1433
    13.3309  13.4081  13.6550  13.9801  14.3379  14.4563  15.7981  15.9542
    17.0296  17.9701  17.9816  18.0077  19.5863  19.6873  20.3178

          k =-0.5678-0.3278-0.1685 (  3012 PWs)   bands (ev):

   -25.7518 -25.7518 -25.6951 -25.6951  -6.5808  -6.5808  -6.4575  -6.4575
    -5.6333  -5.6333  -5.4286  -5.4286  -5.3131  -5.3131  -5.1822  -5.1822
    13.5143  13.5143  13.8996  13.8996  14.0193  14.0193  15.9761  15.9761
    17.3884  17.3884  18.5862  18.5862  19.1522  19.1522  20.7053

          k =-0.5678 0.1093 0.0000 (  3016 PWs)   bands (ev):

   -25.7647 -25.7265 -25.7210 -25.6824  -6.4637  -6.4230  -6.2609  -6.2193
    -5.8639  -5.6807  -5.5933  -5.5790  -5.3778  -5.3629  -5.2741  -5.2336
    13.8011  14.0482  14.4390  14.9222  15.1485  15.3702  15.5400  15.8713
    16.4526  16.6846  17.5670  17.6939  18.4157  18.8520  18.9525

          k =-0.5678 0.1093 0.0843 (  3011 PWs)   bands (ev):

   -25.7615 -25.7396 -25.7077 -25.6855  -6.4461  -6.4079  -6.2849  -6.2587
    -5.8075  -5.6991  -5.5824  -5.5423  -5.4425  -5.3868  -5.2480  -5.2226
    13.8964  14.1171  14.5096  14.6761  14.9673  15.0746  15.6256  16.3020
    16.4785  16.9113  17.4195  17.7878  18.2398  18.5975  19.3210

          k =-0.5678 0.1093-0.1685 (  3012 PWs)   bands (ev):

   -25.7528 -25.7528 -25.6944 -25.6944  -6.4055  -6.4055  -6.3065  -6.3065
    -5.7306  -5.7306  -5.5432  -5.5432  -5.4558  -5.4558  -5.2231  -5.2231
    14.1165  14.1165  14.5888  14.5888  14.7269  14.7269  16.0473  16.0473
    16.8894  16.8894  17.6704  17.6704  18.2248  18.2248  19.6153

     the Fermi energy is    17.3086 ev

!    total energy              =    -371.88942444 Ry
     Harris-Foulkes estimate   =    -371.88942516 Ry
     estimated scf accuracy    <       0.00000080 Ry

     The total energy is the sum of the following terms:

     one-electron contribution =     -12.56072529 Ry
     hartree contribution      =      34.82838691 Ry
     xc contribution           =     -45.64571080 Ry
     ewald contribution        =    -348.17009389 Ry
     smearing contrib. (-TS)   =      -0.34128136 Ry

     convergence has been achieved in   8 iterations

     Forces acting on atoms (Ry/au):

     atom    1 type  1   force =     0.00000000    0.00000000    0.00000000
     atom    2 type  1   force =     0.00000000    0.00000000    0.00000000
     atom    3 type  1   force =     0.00000000    0.00000000    0.00000000
     atom    4 type  1   force =     0.00000000    0.00000000    0.00000000

     Total force =     0.000000     Total SCF correction =     0.000000


     entering subroutine stress ...

          total   stress  (Ry/bohr**3)                   (kbar)     P= -163.06
  -0.00152344   0.00000000   0.00000000       -224.11      0.00      0.00
   0.00000000  -0.00152344   0.00000000          0.00   -224.11      0.00
   0.00000000   0.00000000  -0.00027850          0.00      0.00    -40.97


     Writing output data file Element-Pr.q.save
 
     init_run     :      1.64s CPU      2.08s WALL (       2 calls)
     electrons    :     27.80s CPU     29.50s WALL (       5 calls)
     update_pot   :      0.27s CPU      0.30s WALL (       3 calls)
     forces       :      0.25s CPU      0.30s WALL (       5 calls)
     stress       :      0.46s CPU      0.51s WALL (       5 calls)

     Called by init_run:
     wfcinit      :      1.25s CPU      1.53s WALL (       2 calls)
     potinit      :      0.09s CPU      0.11s WALL (       2 calls)

     Called by electrons:
     c_bands      :     25.90s CPU     26.87s WALL (      51 calls)
     sum_band     :      1.58s CPU      1.65s WALL (      51 calls)
     v_of_rho     :      0.03s CPU      0.04s WALL (      56 calls)
     mix_rho      :      0.03s CPU      0.05s WALL (      51 calls)

     Called by c_bands:
     init_us_2    :      0.14s CPU      0.14s WALL (    1368 calls)
     ccgdiagg     :     21.28s CPU     21.95s WALL (     617 calls)
     wfcrot       :      5.74s CPU      6.26s WALL (     629 calls)

     Called by *cgdiagg:
     h_psi        :     16.43s CPU     17.51s WALL (   64394 calls)
     cdiaghg      :      1.50s CPU      1.69s WALL (     629 calls)

     Called by h_psi:
     add_vuspsi   :      0.87s CPU      1.15s WALL (   64394 calls)

     General routines
     calbec       :      4.63s CPU      5.17s WALL (  128279 calls)
     fft          :      0.05s CPU      0.16s WALL (     247 calls)
     fftw         :     13.23s CPU     13.56s WALL (  187852 calls)
     davcio       :      0.07s CPU      0.09s WALL (    1980 calls)
 
     Parallel routines
     fft_scatter  :      8.13s CPU      7.93s WALL (  188099 calls)
 
     PWSCF        :    30.87s CPU        34.30s WALL

 
   This run was terminated on:  22:59:44  21Mar2018            

=------------------------------------------------------------------------------=
   JOB DONE.
=------------------------------------------------------------------------------=
