
     Program PWSCF v.5.0.2 starts on 22Mar2018 at  0: 1:34 

     This program is part of the open-source Quantum ESPRESSO suite
     for quantum simulation of materials; please cite
         "P. Giannozzi et al., J. Phys.:Condens. Matter 21 395502 (2009);
          URL http://www.quantum-espresso.org", 
     in publications or presentations arising from this work. More details at
     http://www.quantum-espresso.org/quote.php

     Parallel version (MPI), running on     4 processors
     R & G space division:  proc/nbgrp/npool/nimage =       4

     Current dimensions of program PWSCF are:
     Max number of different atomic species (ntypx) = 10
     Max number of k-points (npk) =  40000
     Max angular momentum in pseudopotentials (lmaxx) =  3
     Waiting for input...
     Reading input from standard input

     Subspace diagonalization in iterative solution of the eigenvalue problem:
     a serial algorithm will be used

 
     Parallelization info
     --------------------
     sticks:   dense  smooth     PW     G-vecs:    dense   smooth      PW
     Min         356     356    106                 9670     9670    1578
     Max         358     358    108                 9671     9671    1579
     Sum        1429    1429    427                38681    38681    6313
 


     bravais-lattice index     =            0
     lattice parameter (alat)  =      13.3930  a.u.
     unit-cell volume          =    1134.0956 (a.u.)^3
     number of atoms/cell      =            4
     number of atomic types    =            2
     number of electrons       =        90.00
     number of Kohn-Sham states=           54
     kinetic-energy cutoff     =      40.0000  Ry
     charge density cutoff     =     160.0000  Ry
     convergence threshold     =      1.0E-04
     mixing beta               =       0.7000
     number of iterations used =            8  plain     mixing
     Exchange-correlation      = SLA-PZ-NOGX-NOGC ( 1 1 0 0 0)
     EXX-fraction              =        0.00
     nstep                     =           50


     celldm(1)=  13.392972  celldm(2)=   0.000000  celldm(3)=   0.000000
     celldm(4)=   0.000000  celldm(5)=   0.000000  celldm(6)=   0.000000

     crystal axes: (cart. coord. in units of alat)
               a(1) = (   1.000000   0.000000   0.000000 )  
               a(2) = (  -0.776311   0.630350   0.000000 )  
               a(3) = (   0.000000   0.000000   0.748922 )  

     reciprocal axes: (cart. coord. in units 2 pi/alat)
               b(1) = (  1.000000  1.231554  0.000000 )  
               b(2) = (  0.000000  1.586419  0.000000 )  
               b(3) = (  0.000000  0.000000  1.335252 )  


     PseudoPot. # 1 for Lu read from file:
     /home/cwx6513/pp.La/La.UPF
     MD5 check sum: 4fc038260c66a0bf25fb4835376efb80
     Pseudo is Norm-conserving, Zval = 25.0
     Generated in analytical, separable form
     Using radial grid of 1271 points,  6 beta functions with: 
                l(1) =   0
                l(2) =   0
                l(3) =   1
                l(4) =   1
                l(5) =   2
                l(6) =   3

     PseudoPot. # 2 for Dy read from file:
     /home/cwx6513/pp.La/Dy.UPF
     MD5 check sum: 9597327bec62616a94a14d07f3fd9936
     Pseudo is Norm-conserving, Zval = 20.0
     Generated in analytical, separable form
     Using radial grid of 1265 points,  6 beta functions with: 
                l(1) =   0
                l(2) =   0
                l(3) =   1
                l(4) =   1
                l(5) =   2
                l(6) =   3

     atomic species   valence    mass     pseudopotential
        Tl            25.00   204.38300     Lu( 1.00)
        I             20.00   126.90400     Dy( 1.00)

      2 Sym. Ops., with inversion, found
          (note:  2 additional sym.ops. were found but ignored
           their fractional translations are incommensurate with FFT grid)


   Cartesian axes

     site n.     atom                  positions (alat units)
         1           Tl  tau(   1) = (  -0.0906317   0.3870269   0.5616917  )
         2           Tl  tau(   2) = (   0.3143210   0.2433234   0.1872306  )
         3           I   tau(   3) = (  -0.5408004   0.5467760   0.5616917  )
         4           I   tau(   4) = (   0.7644896   0.0835744   0.1872306  )

     number of k points=   106  gaussian smearing, width (Ry)=  0.1000

     Number of k-points >= 100: set verbosity='high' to print them.

     Dense  grid:    38681 G-vectors     FFT dimensions: (  54,  54,  45)

     Largest allocated arrays     est. size (Mb)     dimensions
        Kohn-Sham Wavefunctions         1.01 Mb     (   1230,   54)
        NL pseudopotentials             1.50 Mb     (   1230,   80)
        Each V/rho on FFT grid          0.53 Mb     (  34992)
        Each G-vector array             0.07 Mb     (   9671)
        G-vector shells                 0.07 Mb     (   9671)
     Largest temporary arrays     est. size (Mb)     dimensions
        Each subspace H/S matrix        0.04 Mb     (  54,  54)
        Each <psi_i|beta_j> matrix      0.07 Mb     (     80,   54)
        Arrays for rho mixing           4.27 Mb     (  34992,   8)

     Initial potential from superposition of free atoms

     Starting from uniform charge
     Starting wfc are    0 randomized atomic wfcs

     total cpu time spent up to now is       10.5 secs

     Self-consistent Calculation

     iteration #  1     ecut=    40.00 Ry     beta=0.70
     CG style diagonalization
     ethr =  1.00E-02,  avg # of iterations = 21.9

     total cpu time spent up to now is      248.5 secs

     total energy              =    -932.67709520 Ry
     Harris-Foulkes estimate   =   -2083.96317723 Ry
     estimated scf accuracy    <    1383.21760065 Ry

     iteration #  2     ecut=    40.00 Ry     beta=0.70
     CG style diagonalization
     c_bands:  1 eigenvalues not converged
     c_bands:  4 eigenvalues not converged
     c_bands:  1 eigenvalues not converged
     c_bands:  4 eigenvalues not converged
     c_bands:  3 eigenvalues not converged
     c_bands:  3 eigenvalues not converged
     c_bands:  3 eigenvalues not converged
     c_bands:  2 eigenvalues not converged
     c_bands:  3 eigenvalues not converged
     c_bands:  2 eigenvalues not converged
     c_bands:  2 eigenvalues not converged
     c_bands:  4 eigenvalues not converged
     c_bands:  5 eigenvalues not converged
     c_bands:  2 eigenvalues not converged
     c_bands:  2 eigenvalues not converged
     c_bands:  4 eigenvalues not converged
     c_bands:  3 eigenvalues not converged
     c_bands:  1 eigenvalues not converged
     c_bands:  3 eigenvalues not converged
     c_bands:  1 eigenvalues not converged
     c_bands:  1 eigenvalues not converged
     c_bands:  5 eigenvalues not converged
     c_bands:  2 eigenvalues not converged
     c_bands:  2 eigenvalues not converged
     c_bands:  4 eigenvalues not converged
     c_bands:  1 eigenvalues not converged
     c_bands:  2 eigenvalues not converged
     c_bands:  2 eigenvalues not converged
     c_bands:  4 eigenvalues not converged
     c_bands:  3 eigenvalues not converged
     c_bands:  5 eigenvalues not converged
     c_bands:  4 eigenvalues not converged
     c_bands:  2 eigenvalues not converged
     c_bands:  1 eigenvalues not converged
     c_bands:  3 eigenvalues not converged
     c_bands:  4 eigenvalues not converged
     c_bands:  1 eigenvalues not converged
     c_bands:  1 eigenvalues not converged
     c_bands:  2 eigenvalues not converged
     c_bands:  4 eigenvalues not converged
     c_bands:  4 eigenvalues not converged
     c_bands:  3 eigenvalues not converged
     c_bands:  4 eigenvalues not converged
     c_bands:  4 eigenvalues not converged
     c_bands:  5 eigenvalues not converged
     c_bands:  4 eigenvalues not converged
     c_bands:  5 eigenvalues not converged
     c_bands:  4 eigenvalues not converged
     c_bands:  4 eigenvalues not converged
     c_bands:  1 eigenvalues not converged
     c_bands:  4 eigenvalues not converged
     c_bands:  3 eigenvalues not converged
     c_bands:  3 eigenvalues not converged
     c_bands:  2 eigenvalues not converged
     c_bands:  3 eigenvalues not converged
     c_bands:  1 eigenvalues not converged
     c_bands:  1 eigenvalues not converged
     c_bands:  5 eigenvalues not converged
     c_bands:  5 eigenvalues not converged
     c_bands:  2 eigenvalues not converged
     c_bands:  1 eigenvalues not converged
     c_bands:  2 eigenvalues not converged
     c_bands:  3 eigenvalues not converged
     c_bands:  1 eigenvalues not converged
     c_bands:  4 eigenvalues not converged
     c_bands:  4 eigenvalues not converged
     c_bands:  4 eigenvalues not converged
     c_bands:  4 eigenvalues not converged
     c_bands:  4 eigenvalues not converged
     c_bands:  1 eigenvalues not converged
     c_bands:  1 eigenvalues not converged
     c_bands:  3 eigenvalues not converged
     c_bands:  4 eigenvalues not converged
     c_bands:  1 eigenvalues not converged
     c_bands:  3 eigenvalues not converged
     c_bands:  5 eigenvalues not converged
     c_bands:  2 eigenvalues not converged
     c_bands:  1 eigenvalues not converged
     c_bands:  2 eigenvalues not converged
     c_bands:  2 eigenvalues not converged
     c_bands:  3 eigenvalues not converged
     c_bands:  2 eigenvalues not converged
     c_bands:  4 eigenvalues not converged
     c_bands:  2 eigenvalues not converged
     c_bands:  3 eigenvalues not converged
     c_bands:  5 eigenvalues not converged
     c_bands:  3 eigenvalues not converged
     ethr =  1.00E-02,  avg # of iterations = 13.0

     total cpu time spent up to now is      377.1 secs

     total energy              =   -1028.16621617 Ry
     Harris-Foulkes estimate   =   -1968.09282561 Ry
     estimated scf accuracy    <    1824.95912097 Ry

     iteration #  3     ecut=    40.00 Ry     beta=0.70
     CG style diagonalization
     ethr =  1.00E-02,  avg # of iterations = 10.7

     total cpu time spent up to now is      484.6 secs

     total energy              =   -1386.44638790 Ry
     Harris-Foulkes estimate   =   -1453.61202905 Ry
     estimated scf accuracy    <     133.92036091 Ry

     iteration #  4     ecut=    40.00 Ry     beta=0.70
     CG style diagonalization
     ethr =  1.00E-02,  avg # of iterations =  7.4

     total cpu time spent up to now is      559.9 secs

     total energy              =   -1426.98264221 Ry
     Harris-Foulkes estimate   =   -1434.83965803 Ry
     estimated scf accuracy    <      19.03503807 Ry

     iteration #  5     ecut=    40.00 Ry     beta=0.70
     CG style diagonalization
     ethr =  1.00E-02,  avg # of iterations =  3.8

     total cpu time spent up to now is      598.2 secs

     total energy              =   -1428.01899504 Ry
     Harris-Foulkes estimate   =   -1430.31210450 Ry
     estimated scf accuracy    <       4.54149635 Ry

     iteration #  6     ecut=    40.00 Ry     beta=0.70
     CG style diagonalization
     ethr =  5.05E-03,  avg # of iterations =  3.4

     total cpu time spent up to now is      633.2 secs

     total energy              =   -1428.52850706 Ry
     Harris-Foulkes estimate   =   -1428.79104020 Ry
     estimated scf accuracy    <       0.46888512 Ry

     iteration #  7     ecut=    40.00 Ry     beta=0.70
     CG style diagonalization
     ethr =  5.21E-04,  avg # of iterations =  3.6

     total cpu time spent up to now is      671.2 secs

     total energy              =   -1428.64179327 Ry
     Harris-Foulkes estimate   =   -1428.65413953 Ry
     estimated scf accuracy    <       0.02114479 Ry

     iteration #  8     ecut=    40.00 Ry     beta=0.70
     CG style diagonalization
     c_bands:  1 eigenvalues not converged
     c_bands:  1 eigenvalues not converged
     c_bands:  1 eigenvalues not converged
     c_bands:  1 eigenvalues not converged
     c_bands:  1 eigenvalues not converged
     ethr =  2.35E-05,  avg # of iterations =  4.4

     total cpu time spent up to now is      717.4 secs

     total energy              =   -1428.64882496 Ry
     Harris-Foulkes estimate   =   -1428.65132405 Ry
     estimated scf accuracy    <       0.00373834 Ry

     iteration #  9     ecut=    40.00 Ry     beta=0.70
     CG style diagonalization
     ethr =  4.15E-06,  avg # of iterations =  4.1

     total cpu time spent up to now is      761.0 secs

     total energy              =   -1428.64949751 Ry
     Harris-Foulkes estimate   =   -1428.65104614 Ry
     estimated scf accuracy    <       0.00262394 Ry

     iteration # 10     ecut=    40.00 Ry     beta=0.70
     CG style diagonalization
     ethr =  2.92E-06,  avg # of iterations =  3.6

     total cpu time spent up to now is      797.8 secs

     total energy              =   -1428.65010701 Ry
     Harris-Foulkes estimate   =   -1428.65019450 Ry
     estimated scf accuracy    <       0.00015131 Ry

     iteration # 11     ecut=    40.00 Ry     beta=0.70
     CG style diagonalization
     ethr =  1.68E-07,  avg # of iterations =  4.0

     total cpu time spent up to now is      840.0 secs

     End of self-consistent calculation

     Number of k-points >= 100: set verbosity='high' to print the bands.

     the Fermi energy is    11.1559 ev

!    total energy              =   -1428.65015309 Ry
     Harris-Foulkes estimate   =   -1428.65015544 Ry
     estimated scf accuracy    <       0.00000292 Ry

     The total energy is the sum of the following terms:

     one-electron contribution =    -832.11347012 Ry
     hartree contribution      =     404.29550498 Ry
     xc contribution           =    -113.93963762 Ry
     ewald contribution        =    -886.77578180 Ry
     smearing contrib. (-TS)   =      -0.11676851 Ry

     convergence has been achieved in  11 iterations

     Forces acting on atoms (Ry/au):

     atom    1 type  1   force =     0.00112950   -0.00006486   -0.00347063
     atom    2 type  1   force =    -0.00112950    0.00006486    0.00347063
     atom    3 type  2   force =    -0.01344313    0.00518592   -0.00283121
     atom    4 type  2   force =     0.01344313   -0.00518592    0.00283121

     Total force =     0.021399     Total SCF correction =     0.000000


     entering subroutine stress ...

          total   stress  (Ry/bohr**3)                   (kbar)     P= -533.21
  -0.00357445  -0.00003501  -0.00000007       -525.82     -5.15     -0.01
  -0.00003501  -0.00366037   0.00000002         -5.15   -538.46      0.00
  -0.00000007   0.00000002  -0.00363922         -0.01      0.00   -535.35


     BFGS Geometry Optimization

     number of scf cycles    =   1
     number of bfgs steps    =   0

     enthalpy new            =   -1428.6501530854 Ry

     new trust radius        =       0.5000000000 bohr
     new conv_thr            =       0.0001000000 Ry

     new unit-cell volume =    901.92973 a.u.^3 (   133.65220 Ang^3 )

CELL_PARAMETERS (alat= 13.39297219)
   0.927509683  -0.000710022  -0.000001333
  -0.720483300   0.584108973   0.000001270
  -0.000000998   0.000000280   0.693648968

ATOMIC_POSITIONS (crystal)
Tl       0.386076575   0.613980768   0.749719311
Tl       0.613923425   0.386019232   0.250280689
I        0.132156599   0.867914308   0.749771025
I        0.867843401   0.132085692   0.250228975



     Writing output data file Prototype-La-oS8-TlI.save
     NEW-OLD atomic charge density approx. for the potential
     NEW k-points: (use verbosity='high' to print them)

     total cpu time spent up to now is      847.5 secs

     Self-consistent Calculation

     iteration #  1     ecut=    40.00 Ry     beta=0.70
     CG style diagonalization
     c_bands:  1 eigenvalues not converged
     c_bands:  3 eigenvalues not converged
     c_bands:  1 eigenvalues not converged
     c_bands:  1 eigenvalues not converged
     c_bands:  2 eigenvalues not converged
     c_bands:  1 eigenvalues not converged
     c_bands:  1 eigenvalues not converged
     c_bands:  1 eigenvalues not converged
     ethr =  1.00E-06,  avg # of iterations = 20.9

     total cpu time spent up to now is     1048.2 secs

     total energy              =   -1419.43652926 Ry
     Harris-Foulkes estimate   =   -1439.27777924 Ry
     estimated scf accuracy    <      24.21035533 Ry

     iteration #  2     ecut=    40.00 Ry     beta=0.70
     CG style diagonalization
     ethr =  1.00E-02,  avg # of iterations =  4.7

     total cpu time spent up to now is     1096.0 secs

     total energy              =   -1427.82683178 Ry
     Harris-Foulkes estimate   =   -1432.42955546 Ry
     estimated scf accuracy    <       7.23977817 Ry

     iteration #  3     ecut=    40.00 Ry     beta=0.70
     CG style diagonalization
     ethr =  8.04E-03,  avg # of iterations =  3.4

     total cpu time spent up to now is     1131.4 secs

     total energy              =   -1429.11138230 Ry
     Harris-Foulkes estimate   =   -1429.45096182 Ry
     estimated scf accuracy    <       0.65471031 Ry

     iteration #  4     ecut=    40.00 Ry     beta=0.70
     CG style diagonalization
     ethr =  7.27E-04,  avg # of iterations =  3.7

     total cpu time spent up to now is     1169.0 secs

     total energy              =   -1429.30670782 Ry
     Harris-Foulkes estimate   =   -1429.35029076 Ry
     estimated scf accuracy    <       0.08697727 Ry

     iteration #  5     ecut=    40.00 Ry     beta=0.70
     CG style diagonalization
     ethr =  9.66E-05,  avg # of iterations =  3.8

     total cpu time spent up to now is     1208.1 secs

     total energy              =   -1429.32738460 Ry
     Harris-Foulkes estimate   =   -1429.33355404 Ry
     estimated scf accuracy    <       0.01146514 Ry

     iteration #  6     ecut=    40.00 Ry     beta=0.70
     CG style diagonalization
     c_bands:  1 eigenvalues not converged
     c_bands:  1 eigenvalues not converged
     c_bands:  1 eigenvalues not converged
     c_bands:  1 eigenvalues not converged
     c_bands:  1 eigenvalues not converged
     ethr =  1.27E-05,  avg # of iterations =  3.9

     total cpu time spent up to now is     1249.8 secs

     total energy              =   -1429.32878042 Ry
     Harris-Foulkes estimate   =   -1429.33012671 Ry
     estimated scf accuracy    <       0.00241327 Ry

     iteration #  7     ecut=    40.00 Ry     beta=0.70
     CG style diagonalization
     c_bands:  1 eigenvalues not converged
     c_bands:  1 eigenvalues not converged
     ethr =  2.68E-06,  avg # of iterations =  3.9

     total cpu time spent up to now is     1289.5 secs

     End of self-consistent calculation

     Number of k-points >= 100: set verbosity='high' to print the bands.

     the Fermi energy is    15.6751 ev

!    total energy              =   -1429.32925728 Ry
     Harris-Foulkes estimate   =   -1429.32933452 Ry
     estimated scf accuracy    <       0.00008921 Ry

     The total energy is the sum of the following terms:

     one-electron contribution =    -717.36089804 Ry
     hartree contribution      =     359.80839588 Ry
     xc contribution           =    -114.52377090 Ry
     ewald contribution        =    -957.15139689 Ry
     smearing contrib. (-TS)   =      -0.10158732 Ry

     convergence has been achieved in   7 iterations

     Forces acting on atoms (Ry/au):

     atom    1 type  1   force =     0.01625069   -0.00521488    0.02385326
     atom    2 type  1   force =    -0.01625069    0.00521488   -0.02385326
     atom    3 type  2   force =    -0.03266331    0.01180688    0.03002256
     atom    4 type  2   force =     0.03266331   -0.01180688   -0.03002256

     Total force =     0.077044     Total SCF correction =     0.000000


     entering subroutine stress ...

          total   stress  (Ry/bohr**3)                   (kbar)     P= -322.19
  -0.00212537  -0.00006461  -0.00000055       -312.65     -9.50     -0.08
  -0.00006461  -0.00228292   0.00000019         -9.50   -335.83      0.03
  -0.00000055   0.00000019  -0.00216228         -0.08      0.03   -318.08


     number of scf cycles    =   2
     number of bfgs steps    =   1

     enthalpy old            =   -1428.6501530854 Ry
     enthalpy new            =   -1429.3292572803 Ry

     CASE: enthalpy_new < enthalpy_old

     small trust_radius: resetting bfgs history

     new trust radius        =       0.3429416392 bohr
     new conv_thr            =       0.0000326633 Ry

     new unit-cell volume =    761.73324 a.u.^3 (   112.87722 Ang^3 )

CELL_PARAMETERS (alat= 13.39297219)
   0.878228224  -0.002167608  -0.000013935
  -0.683144353   0.551935894   0.000013799
  -0.000010421   0.000003538   0.656152417

ATOMIC_POSITIONS (crystal)
Tl       0.386867710   0.613315116   0.752286936
Tl       0.613132290   0.386684884   0.247713064
I        0.130698158   0.869421793   0.753002719
I        0.869301842   0.130578207   0.246997281



     Writing output data file Prototype-La-oS8-TlI.save
     NEW-OLD atomic charge density approx. for the potential
     NEW k-points: (use verbosity='high' to print them)

     total cpu time spent up to now is     1296.8 secs

     Self-consistent Calculation

     iteration #  1     ecut=    40.00 Ry     beta=0.70
     CG style diagonalization
     c_bands:  1 eigenvalues not converged
     c_bands:  1 eigenvalues not converged
     c_bands:  1 eigenvalues not converged
     c_bands:  2 eigenvalues not converged
     c_bands:  1 eigenvalues not converged
     c_bands:  1 eigenvalues not converged
     c_bands:  1 eigenvalues not converged
     ethr =  1.00E-06,  avg # of iterations = 22.5

     total cpu time spent up to now is     1520.1 secs

     total energy              =   -1421.18259122 Ry
     Harris-Foulkes estimate   =   -1435.99428670 Ry
     estimated scf accuracy    <      17.92387365 Ry

     iteration #  2     ecut=    40.00 Ry     beta=0.70
     CG style diagonalization
     ethr =  1.00E-02,  avg # of iterations =  5.1

     total cpu time spent up to now is     1573.9 secs

     total energy              =   -1424.41234213 Ry
     Harris-Foulkes estimate   =   -1435.08739464 Ry
     estimated scf accuracy    <      20.49342432 Ry

     iteration #  3     ecut=    40.00 Ry     beta=0.70
     CG style diagonalization
     ethr =  1.00E-02,  avg # of iterations =  4.0

     total cpu time spent up to now is     1616.7 secs

     total energy              =   -1428.96011139 Ry
     Harris-Foulkes estimate   =   -1429.94986962 Ry
     estimated scf accuracy    <       2.09290400 Ry

     iteration #  4     ecut=    40.00 Ry     beta=0.70
     CG style diagonalization
     ethr =  2.33E-03,  avg # of iterations =  3.6

     total cpu time spent up to now is     1655.2 secs

     total energy              =   -1429.44943285 Ry
     Harris-Foulkes estimate   =   -1429.49705498 Ry
     estimated scf accuracy    <       0.09431410 Ry

     iteration #  5     ecut=    40.00 Ry     beta=0.70
     CG style diagonalization
     c_bands:  1 eigenvalues not converged
     ethr =  1.05E-04,  avg # of iterations =  4.6

     total cpu time spent up to now is     1703.2 secs

     total energy              =   -1429.49301711 Ry
     Harris-Foulkes estimate   =   -1429.49916421 Ry
     estimated scf accuracy    <       0.00983156 Ry

     iteration #  6     ecut=    40.00 Ry     beta=0.70
     CG style diagonalization
     c_bands:  1 eigenvalues not converged
     c_bands:  1 eigenvalues not converged
     c_bands:  1 eigenvalues not converged
     c_bands:  1 eigenvalues not converged
     c_bands:  1 eigenvalues not converged
     c_bands:  1 eigenvalues not converged
     c_bands:  1 eigenvalues not converged
     c_bands:  1 eigenvalues not converged
     c_bands:  1 eigenvalues not converged
     c_bands:  1 eigenvalues not converged
     c_bands:  1 eigenvalues not converged
     c_bands:  1 eigenvalues not converged
     c_bands:  1 eigenvalues not converged
     c_bands:  1 eigenvalues not converged
     ethr =  1.09E-05,  avg # of iterations =  4.6

     total cpu time spent up to now is     1751.5 secs

     total energy              =   -1429.49670236 Ry
     Harris-Foulkes estimate   =   -1429.49765170 Ry
     estimated scf accuracy    <       0.00162090 Ry

     iteration #  7     ecut=    40.00 Ry     beta=0.70
     CG style diagonalization
     c_bands:  1 eigenvalues not converged
     c_bands:  1 eigenvalues not converged
     c_bands:  1 eigenvalues not converged
     c_bands:  1 eigenvalues not converged
     ethr =  1.80E-06,  avg # of iterations =  4.1

     total cpu time spent up to now is     1796.3 secs

     total energy              =   -1429.49715299 Ry
     Harris-Foulkes estimate   =   -1429.49719545 Ry
     estimated scf accuracy    <       0.00006834 Ry

     iteration #  8     ecut=    40.00 Ry     beta=0.70
     CG style diagonalization
     c_bands:  1 eigenvalues not converged
     ethr =  7.59E-08,  avg # of iterations =  4.8

     total cpu time spent up to now is     1846.2 secs

     End of self-consistent calculation

     Number of k-points >= 100: set verbosity='high' to print the bands.

     the Fermi energy is    19.6673 ev

!    total energy              =   -1429.49719556 Ry
     Harris-Foulkes estimate   =   -1429.49721235 Ry
     estimated scf accuracy    <       0.00001947 Ry

     The total energy is the sum of the following terms:

     one-electron contribution =    -629.26872529 Ry
     hartree contribution      =     327.48350338 Ry
     xc contribution           =    -115.11479553 Ry
     ewald contribution        =   -1012.50159661 Ry
     smearing contrib. (-TS)   =      -0.09558151 Ry

     convergence has been achieved in   8 iterations

     Forces acting on atoms (Ry/au):

     atom    1 type  1   force =     0.02599755   -0.01005451    0.00704505
     atom    2 type  1   force =    -0.02599755    0.01005451   -0.00704505
     atom    3 type  2   force =    -0.03313370    0.01106445   -0.00235756
     atom    4 type  2   force =     0.03313370   -0.01106445    0.00235756

     Total force =     0.064069     Total SCF correction =     0.000000


     entering subroutine stress ...

          total   stress  (Ry/bohr**3)                   (kbar)     P=  -22.69
  -0.00015258  -0.00005964  -0.00000026        -22.45     -8.77     -0.04
  -0.00005964  -0.00029485   0.00000027         -8.77    -43.37      0.04
  -0.00000026   0.00000027  -0.00001538         -0.04      0.04     -2.26


     number of scf cycles    =   3
     number of bfgs steps    =   2

     enthalpy old            =   -1429.3292572803 Ry
     enthalpy new            =   -1429.4971955624 Ry

     CASE: enthalpy_new < enthalpy_old

     Message from routine bfgs:
     history already reset at previous step: stopping
     small trust_radius: resetting bfgs history

     new trust radius        =       0.0415126084 bohr
     new conv_thr            =       0.0000331337 Ry

     new unit-cell volume =    752.94283 a.u.^3 (   111.57462 Ang^3 )

CELL_PARAMETERS (alat= 13.39297219)
   0.874881421  -0.003461057  -0.000019607
  -0.681361402   0.548885997   0.000021932
  -0.000014618   0.000007965   0.655900193

ATOMIC_POSITIONS (crystal)
Tl       0.388023494   0.611959472   0.753088672
Tl       0.611976506   0.388040528   0.246911328
I        0.129040412   0.870912086   0.752734377
I        0.870959588   0.129087914   0.247265623



     Writing output data file Prototype-La-oS8-TlI.save
     NEW-OLD atomic charge density approx. for the potential
     NEW k-points: (use verbosity='high' to print them)

     total cpu time spent up to now is     1853.5 secs

     Self-consistent Calculation

     iteration #  1     ecut=    40.00 Ry     beta=0.70
     CG style diagonalization
     c_bands:  3 eigenvalues not converged
     c_bands:  2 eigenvalues not converged
     c_bands:  3 eigenvalues not converged
     c_bands:  5 eigenvalues not converged
     c_bands:  2 eigenvalues not converged
     c_bands:  1 eigenvalues not converged
     c_bands:  2 eigenvalues not converged
     c_bands:  5 eigenvalues not converged
     c_bands:  1 eigenvalues not converged
     c_bands:  1 eigenvalues not converged
     c_bands:  3 eigenvalues not converged
     c_bands:  1 eigenvalues not converged
     c_bands:  5 eigenvalues not converged
     c_bands:  1 eigenvalues not converged
     c_bands:  5 eigenvalues not converged
     c_bands:  1 eigenvalues not converged
     c_bands:  1 eigenvalues not converged
     c_bands:  5 eigenvalues not converged
     c_bands:  1 eigenvalues not converged
     c_bands:  4 eigenvalues not converged
     c_bands:  5 eigenvalues not converged
     c_bands:  1 eigenvalues not converged
     c_bands:  2 eigenvalues not converged
     c_bands:  2 eigenvalues not converged
     c_bands:  1 eigenvalues not converged
     c_bands:  1 eigenvalues not converged
     c_bands:  1 eigenvalues not converged
     c_bands:  1 eigenvalues not converged
     c_bands:  4 eigenvalues not converged
     c_bands:  1 eigenvalues not converged
     c_bands:  1 eigenvalues not converged
     c_bands:  2 eigenvalues not converged
     ethr =  1.00E-06,  avg # of iterations = 17.2

     total cpu time spent up to now is     2030.5 secs

     total energy              =   -1426.13455918 Ry
     Harris-Foulkes estimate   =   -1430.70744352 Ry
     estimated scf accuracy    <       5.36954703 Ry

     iteration #  2     ecut=    40.00 Ry     beta=0.70
     CG style diagonalization
     ethr =  5.97E-03,  avg # of iterations =  4.8

     total cpu time spent up to now is     2085.4 secs

     total energy              =   -1425.64524917 Ry
     Harris-Foulkes estimate   =   -1434.20568164 Ry
     estimated scf accuracy    <      22.71364915 Ry

     iteration #  3     ecut=    40.00 Ry     beta=0.70
     CG style diagonalization
     ethr =  5.97E-03,  avg # of iterations =  4.1

     total cpu time spent up to now is     2129.8 secs

     total energy              =   -1429.38042286 Ry
     Harris-Foulkes estimate   =   -1429.42128367 Ry
     estimated scf accuracy    <       0.08270831 Ry

     iteration #  4     ecut=    40.00 Ry     beta=0.70
     CG style diagonalization
     c_bands:  1 eigenvalues not converged
     c_bands:  1 eigenvalues not converged
     c_bands:  1 eigenvalues not converged
     ethr =  9.19E-05,  avg # of iterations =  5.5

     total cpu time spent up to now is     2205.4 secs

     total energy              =   -1429.49797514 Ry
     Harris-Foulkes estimate   =   -1429.50179170 Ry
     estimated scf accuracy    <       0.00808592 Ry

     iteration #  5     ecut=    40.00 Ry     beta=0.70
     CG style diagonalization
     c_bands:  1 eigenvalues not converged
     c_bands:  1 eigenvalues not converged
     c_bands:  1 eigenvalues not converged
     c_bands:  1 eigenvalues not converged
     c_bands:  1 eigenvalues not converged
     c_bands:  1 eigenvalues not converged
     c_bands:  1 eigenvalues not converged
     c_bands:  1 eigenvalues not converged
     c_bands:  1 eigenvalues not converged
     c_bands:  1 eigenvalues not converged
     c_bands:  1 eigenvalues not converged
     c_bands:  1 eigenvalues not converged
     ethr =  8.98E-06,  avg # of iterations =  4.4

     total cpu time spent up to now is     2262.9 secs

     total energy              =   -1429.49941686 Ry
     Harris-Foulkes estimate   =   -1429.50014485 Ry
     estimated scf accuracy    <       0.00153777 Ry

     iteration #  6     ecut=    40.00 Ry     beta=0.70
     CG style diagonalization
     c_bands:  1 eigenvalues not converged
     c_bands:  1 eigenvalues not converged
     c_bands:  1 eigenvalues not converged
     c_bands:  1 eigenvalues not converged
     c_bands:  1 eigenvalues not converged
     c_bands:  1 eigenvalues not converged
     c_bands:  1 eigenvalues not converged
     c_bands:  1 eigenvalues not converged
     ethr =  1.71E-06,  avg # of iterations =  4.1

     total cpu time spent up to now is     2318.6 secs

     total energy              =   -1429.49974299 Ry
     Harris-Foulkes estimate   =   -1429.49998837 Ry
     estimated scf accuracy    <       0.00048247 Ry

     iteration #  7     ecut=    40.00 Ry     beta=0.70
     CG style diagonalization
     c_bands:  1 eigenvalues not converged
     ethr =  5.36E-07,  avg # of iterations =  3.6

     total cpu time spent up to now is     2366.8 secs

     total energy              =   -1429.49988749 Ry
     Harris-Foulkes estimate   =   -1429.49990967 Ry
     estimated scf accuracy    <       0.00004839 Ry

     iteration #  8     ecut=    40.00 Ry     beta=0.70
     CG style diagonalization
     ethr =  5.38E-08,  avg # of iterations =  4.3

     total cpu time spent up to now is     2425.6 secs

     End of self-consistent calculation

     Number of k-points >= 100: set verbosity='high' to print the bands.

     the Fermi energy is    19.9558 ev

!    total energy              =   -1429.49990016 Ry
     Harris-Foulkes estimate   =   -1429.49991603 Ry
     estimated scf accuracy    <       0.00001787 Ry

     The total energy is the sum of the following terms:

     one-electron contribution =    -623.69001600 Ry
     hartree contribution      =     325.58052142 Ry
     xc contribution           =    -115.15652038 Ry
     ewald contribution        =   -1016.13850254 Ry
     smearing contrib. (-TS)   =      -0.09538266 Ry

     convergence has been achieved in   8 iterations

     Forces acting on atoms (Ry/au):

     atom    1 type  1   force =    -0.04891116    0.01849421   -0.00888129
     atom    2 type  1   force =     0.04891116   -0.01849421    0.00888129
     atom    3 type  2   force =     0.00075949    0.00044817   -0.00353365
     atom    4 type  2   force =    -0.00075949   -0.00044817    0.00353365

     Total force =     0.075186     Total SCF correction =     0.000000


     entering subroutine stress ...

          total   stress  (Ry/bohr**3)                   (kbar)     P=   -2.38
  -0.00006731  -0.00002380   0.00000904         -9.90     -3.50      1.33
  -0.00002380  -0.00012353  -0.00000338         -3.50    -18.17     -0.50
   0.00000904  -0.00000338   0.00014224          1.33     -0.50     20.92


     The maximum number of steps has been reached.

     End of BFGS Geometry Optimization
Begin final coordinates
     new unit-cell volume =    752.94283 a.u.^3 (   111.57462 Ang^3 )

CELL_PARAMETERS (alat= 13.39297219)
   0.874881421  -0.003461057  -0.000019607
  -0.681361402   0.548885997   0.000021932
  -0.000014618   0.000007965   0.655900193

ATOMIC_POSITIONS (crystal)
Tl       0.388023494   0.611959472   0.753088672
Tl       0.611976506   0.388040528   0.246911328
I        0.129040412   0.870912086   0.752734377
I        0.870959588   0.129087914   0.247265623
End final coordinates



     A final scf calculation at the relaxed structure.
     The G-vectors are recalculated for the final unit cell
     Results may differ from those at the preceding step.
 
     Parallelization info
     --------------------
     sticks:   dense  smooth     PW     G-vecs:    dense   smooth      PW
     Min         273     273     82                 6447     6447    1081
     Max         274     274     83                 6450     6450    1082
     Sum        1095    1095    329                25795    25795    4327
 


     bravais-lattice index     =            0
     lattice parameter (alat)  =      13.3930  a.u.
     unit-cell volume          =     752.9428 (a.u.)^3
     number of atoms/cell      =            4
     number of atomic types    =            2
     number of electrons       =        90.00
     number of Kohn-Sham states=           54
     kinetic-energy cutoff     =      40.0000  Ry
     charge density cutoff     =     160.0000  Ry
     convergence threshold     =      3.3E-05
     mixing beta               =       0.7000
     number of iterations used =            8  plain     mixing
     Exchange-correlation      = SLA-PZ-NOGX-NOGC ( 1 1 0 0 0)
     EXX-fraction              =        0.00

     celldm(1)=  13.392972  celldm(2)=   0.000000  celldm(3)=   0.000000
     celldm(4)=   0.000000  celldm(5)=   0.000000  celldm(6)=   0.000000

     crystal axes: (cart. coord. in units of alat)
               a(1) = (   0.874881  -0.003461  -0.000020 )  
               a(2) = (  -0.681361   0.548886   0.000022 )  
               a(3) = (  -0.000015   0.000008   0.655900 )  

     reciprocal axes: (cart. coord. in units 2 pi/alat)
               b(1) = (  1.148653  1.425884  0.000008 )  
               b(2) = (  0.007243  1.830863 -0.000022 )  
               b(3) = (  0.000034 -0.000019  1.524622 )  


     PseudoPot. # 1 for Lu read from file:
     /home/cwx6513/pp.La/La.UPF
     MD5 check sum: 4fc038260c66a0bf25fb4835376efb80
     Pseudo is Norm-conserving, Zval = 25.0
     Generated in analytical, separable form
     Using radial grid of 1271 points,  6 beta functions with: 
                l(1) =   0
                l(2) =   0
                l(3) =   1
                l(4) =   1
                l(5) =   2
                l(6) =   3

     PseudoPot. # 2 for Dy read from file:
     /home/cwx6513/pp.La/Dy.UPF
     MD5 check sum: 9597327bec62616a94a14d07f3fd9936
     Pseudo is Norm-conserving, Zval = 20.0
     Generated in analytical, separable form
     Using radial grid of 1265 points,  6 beta functions with: 
                l(1) =   0
                l(2) =   0
                l(3) =   1
                l(4) =   1
                l(5) =   2
                l(6) =   3

     atomic species   valence    mass     pseudopotential
        Tl            25.00   204.38300     Lu( 1.00)
        I             20.00   126.90400     Dy( 1.00)

      2 Sym. Ops., with inversion, found
          (note:  2 additional sym.ops. were found but ignored
           their fractional translations are incommensurate with FFT grid)


   Cartesian axes

     site n.     atom                  positions (alat units)
         1           Tl  tau(   1) = (  -0.0775020   0.3345590   0.4939568  )
         2           Tl  tau(   2) = (   0.2710074   0.2108739   0.1619457  )
         3           I   tau(   3) = (  -0.4805218   0.4775908   0.4937352  )
         4           I   tau(   4) = (   0.6740272   0.0678421   0.1621673  )

     number of k points=   106  gaussian smearing, width (Ry)=  0.1000

     Number of k-points >= 100: set verbosity='high' to print them.

     Dense  grid:    25795 G-vectors     FFT dimensions: (  48,  48,  36)

     Largest allocated arrays     est. size (Mb)     dimensions
        Kohn-Sham Wavefunctions         0.67 Mb     (    814,   54)
        NL pseudopotentials             0.99 Mb     (    814,   80)
        Each V/rho on FFT grid          0.32 Mb     (  20736)
        Each G-vector array             0.05 Mb     (   6449)
        G-vector shells                 0.05 Mb     (   6373)
     Largest temporary arrays     est. size (Mb)     dimensions
        Each subspace H/S matrix        0.04 Mb     (  54,  54)
        Each <psi_i|beta_j> matrix      0.07 Mb     (     80,   54)
        Arrays for rho mixing           2.53 Mb     (  20736,   8)

     Initial potential from superposition of free atoms

     Starting from uniform charge
     Starting wfc are    0 randomized atomic wfcs

     Writing output data file Prototype-La-oS8-TlI.save

     total cpu time spent up to now is     2441.1 secs

     Self-consistent Calculation

     iteration #  1     ecut=    40.00 Ry     beta=0.70
     CG style diagonalization
     c_bands:  2 eigenvalues not converged
     c_bands:  5 eigenvalues not converged
     c_bands:  3 eigenvalues not converged
     c_bands:  2 eigenvalues not converged
     c_bands:  3 eigenvalues not converged
     c_bands:  2 eigenvalues not converged
     c_bands:  2 eigenvalues not converged
     c_bands:  2 eigenvalues not converged
     c_bands:  2 eigenvalues not converged
     c_bands:  1 eigenvalues not converged
     c_bands:  2 eigenvalues not converged
     c_bands:  3 eigenvalues not converged
     c_bands:  2 eigenvalues not converged
     c_bands:  1 eigenvalues not converged
     c_bands:  2 eigenvalues not converged
     c_bands:  1 eigenvalues not converged
     c_bands:  1 eigenvalues not converged
     c_bands:  3 eigenvalues not converged
     c_bands:  2 eigenvalues not converged
     c_bands:  1 eigenvalues not converged
     c_bands:  5 eigenvalues not converged
     c_bands:  2 eigenvalues not converged
     c_bands:  1 eigenvalues not converged
     c_bands:  2 eigenvalues not converged
     c_bands:  3 eigenvalues not converged
     c_bands:  3 eigenvalues not converged
     c_bands:  2 eigenvalues not converged
     c_bands:  5 eigenvalues not converged
     c_bands:  5 eigenvalues not converged
     c_bands:  2 eigenvalues not converged
     c_bands:  3 eigenvalues not converged
     c_bands:  1 eigenvalues not converged
     c_bands:  3 eigenvalues not converged
     c_bands:  3 eigenvalues not converged
     c_bands:  2 eigenvalues not converged
     c_bands:  1 eigenvalues not converged
     c_bands:  2 eigenvalues not converged
     c_bands:  2 eigenvalues not converged
     c_bands:  2 eigenvalues not converged
     c_bands:  3 eigenvalues not converged
     c_bands:  2 eigenvalues not converged
     c_bands:  2 eigenvalues not converged
     c_bands:  3 eigenvalues not converged
     c_bands:  5 eigenvalues not converged
     c_bands:  1 eigenvalues not converged
     c_bands:  1 eigenvalues not converged
     c_bands:  1 eigenvalues not converged
     c_bands:  2 eigenvalues not converged
     c_bands:  3 eigenvalues not converged
     c_bands:  2 eigenvalues not converged
     c_bands:  2 eigenvalues not converged
     c_bands:  5 eigenvalues not converged
     c_bands:  2 eigenvalues not converged
     c_bands:  3 eigenvalues not converged
     c_bands:  2 eigenvalues not converged
     c_bands:  1 eigenvalues not converged
     c_bands:  3 eigenvalues not converged
     c_bands:  2 eigenvalues not converged
     c_bands:  2 eigenvalues not converged
     c_bands:  1 eigenvalues not converged
     c_bands:  5 eigenvalues not converged
     c_bands:  5 eigenvalues not converged
     c_bands:  5 eigenvalues not converged
     c_bands:  2 eigenvalues not converged
     c_bands:  2 eigenvalues not converged
     c_bands:  3 eigenvalues not converged
     c_bands:  1 eigenvalues not converged
     c_bands:  3 eigenvalues not converged
     c_bands:  4 eigenvalues not converged
     c_bands:  1 eigenvalues not converged
     c_bands:  5 eigenvalues not converged
     c_bands:  1 eigenvalues not converged
     c_bands:  1 eigenvalues not converged
     c_bands:  2 eigenvalues not converged
     c_bands:  3 eigenvalues not converged
     c_bands:  2 eigenvalues not converged
     c_bands:  1 eigenvalues not converged
     c_bands:  1 eigenvalues not converged
     c_bands:  2 eigenvalues not converged
     c_bands:  1 eigenvalues not converged
     c_bands:  2 eigenvalues not converged
     c_bands:  2 eigenvalues not converged
     c_bands:  2 eigenvalues not converged
     c_bands:  2 eigenvalues not converged
     c_bands:  1 eigenvalues not converged
     c_bands:  3 eigenvalues not converged
     c_bands:  1 eigenvalues not converged
     c_bands:  3 eigenvalues not converged
     c_bands:  5 eigenvalues not converged
     c_bands:  4 eigenvalues not converged
     c_bands:  5 eigenvalues not converged
     c_bands:  2 eigenvalues not converged
     c_bands:  2 eigenvalues not converged
     c_bands:  2 eigenvalues not converged
     c_bands:  2 eigenvalues not converged
     c_bands:  4 eigenvalues not converged
     c_bands:  2 eigenvalues not converged
     c_bands:  2 eigenvalues not converged
     c_bands:  3 eigenvalues not converged
     c_bands:  2 eigenvalues not converged
     c_bands:  5 eigenvalues not converged
     c_bands:  5 eigenvalues not converged
     c_bands:  5 eigenvalues not converged
     c_bands:  3 eigenvalues not converged
     c_bands:  1 eigenvalues not converged
     ethr =  1.00E-06,  avg # of iterations = 57.5

     total cpu time spent up to now is     2831.2 secs

     total energy              =    -949.90645954 Ry
     Harris-Foulkes estimate   =   -1976.88823163 Ry
     estimated scf accuracy    <    1234.35720932 Ry

     iteration #  2     ecut=    40.00 Ry     beta=0.70
     CG style diagonalization
     c_bands:  1 eigenvalues not converged
     c_bands:  1 eigenvalues not converged
     c_bands:  1 eigenvalues not converged
     c_bands:  1 eigenvalues not converged
     c_bands:  1 eigenvalues not converged
     ethr =  1.00E-02,  avg # of iterations = 12.1

     total cpu time spent up to now is     2921.9 secs

     total energy              =   -1065.77058183 Ry
     Harris-Foulkes estimate   =   -1900.05789015 Ry
     estimated scf accuracy    <    1616.64791176 Ry

     iteration #  3     ecut=    40.00 Ry     beta=0.70
     CG style diagonalization
     ethr =  1.00E-02,  avg # of iterations = 10.3

     total cpu time spent up to now is     2995.7 secs

     total energy              =   -1403.77947315 Ry
     Harris-Foulkes estimate   =   -1446.28592548 Ry
     estimated scf accuracy    <      76.11272001 Ry

     iteration #  4     ecut=    40.00 Ry     beta=0.70
     CG style diagonalization
     ethr =  1.00E-02,  avg # of iterations =  6.1

     total cpu time spent up to now is     3039.5 secs

     total energy              =   -1427.25535090 Ry
     Harris-Foulkes estimate   =   -1432.01184339 Ry
     estimated scf accuracy    <      11.45336764 Ry

     iteration #  5     ecut=    40.00 Ry     beta=0.70
     CG style diagonalization
     ethr =  1.00E-02,  avg # of iterations =  3.6

     total cpu time spent up to now is     3066.0 secs

     total energy              =   -1427.84042183 Ry
     Harris-Foulkes estimate   =   -1429.36544761 Ry
     estimated scf accuracy    <       2.55687767 Ry

     iteration #  6     ecut=    40.00 Ry     beta=0.70
     CG style diagonalization
     ethr =  2.84E-03,  avg # of iterations =  3.5

     total cpu time spent up to now is     3088.9 secs

     total energy              =   -1428.36192570 Ry
     Harris-Foulkes estimate   =   -1428.41748396 Ry
     estimated scf accuracy    <       0.09845524 Ry

     iteration #  7     ecut=    40.00 Ry     beta=0.70
     CG style diagonalization
     c_bands:  2 eigenvalues not converged
     c_bands:  2 eigenvalues not converged
     c_bands:  1 eigenvalues not converged
     c_bands:  1 eigenvalues not converged
     c_bands:  1 eigenvalues not converged
     c_bands:  1 eigenvalues not converged
     c_bands:  2 eigenvalues not converged
     c_bands:  1 eigenvalues not converged
     c_bands:  1 eigenvalues not converged
     c_bands:  1 eigenvalues not converged
     ethr =  1.09E-04,  avg # of iterations =  4.5

     total cpu time spent up to now is     3121.4 secs

     total energy              =   -1428.39949186 Ry
     Harris-Foulkes estimate   =   -1428.40875638 Ry
     estimated scf accuracy    <       0.01821727 Ry

     iteration #  8     ecut=    40.00 Ry     beta=0.70
     CG style diagonalization
     c_bands:  1 eigenvalues not converged
     c_bands:  1 eigenvalues not converged
     ethr =  2.02E-05,  avg # of iterations =  3.7

     total cpu time spent up to now is     3150.8 secs

     total energy              =   -1428.40264779 Ry
     Harris-Foulkes estimate   =   -1428.40311345 Ry
     estimated scf accuracy    <       0.00081346 Ry

     iteration #  9     ecut=    40.00 Ry     beta=0.70
     CG style diagonalization
     c_bands:  1 eigenvalues not converged
     c_bands:  1 eigenvalues not converged
     c_bands:  1 eigenvalues not converged
     ethr =  9.04E-07,  avg # of iterations =  4.9

     total cpu time spent up to now is     3189.9 secs

     total energy              =   -1428.40303339 Ry
     Harris-Foulkes estimate   =   -1428.40329455 Ry
     estimated scf accuracy    <       0.00043385 Ry

     iteration # 10     ecut=    40.00 Ry     beta=0.70
     CG style diagonalization
     ethr =  4.82E-07,  avg # of iterations =  3.4

     total cpu time spent up to now is     3215.6 secs

     End of self-consistent calculation

     Number of k-points >= 100: set verbosity='high' to print the bands.

     the Fermi energy is    20.0133 ev

!    total energy              =   -1428.40313594 Ry
     Harris-Foulkes estimate   =   -1428.40314836 Ry
     estimated scf accuracy    <       0.00001449 Ry

     The total energy is the sum of the following terms:

     one-electron contribution =    -621.96020969 Ry
     hartree contribution      =     324.78986051 Ry
     xc contribution           =    -115.00059752 Ry
     ewald contribution        =   -1016.13850256 Ry
     smearing contrib. (-TS)   =      -0.09368668 Ry

     convergence has been achieved in  10 iterations

     Forces acting on atoms (Ry/au):

     atom    1 type  1   force =     0.00201659   -0.00069012   -0.00619173
     atom    2 type  1   force =    -0.00201659    0.00069012    0.00619173
     atom    3 type  2   force =    -0.02265137    0.00777704   -0.00171837
     atom    4 type  2   force =     0.02265137   -0.00777704    0.00171837

     Total force =     0.035197     Total SCF correction =     0.000000


     entering subroutine stress ...

          total   stress  (Ry/bohr**3)                   (kbar)     P= -506.08
  -0.00346599  -0.00005849   0.00000814       -509.86     -8.60      1.20
  -0.00005849  -0.00360500  -0.00000305         -8.60   -530.31     -0.45
   0.00000814  -0.00000305  -0.00324980          1.20     -0.45   -478.06


     Writing output data file Prototype-La-oS8-TlI.save
 
     init_run     :     12.72s CPU     18.88s WALL (       2 calls)
     electrons    :   2489.52s CPU   3167.66s WALL (       5 calls)
     update_pot   :      2.53s CPU      2.56s WALL (       3 calls)
     forces       :      7.18s CPU      7.77s WALL (       5 calls)
     stress       :     19.97s CPU     21.25s WALL (       5 calls)

     Called by init_run:
     wfcinit      :     11.63s CPU     16.65s WALL (       2 calls)
     potinit      :      0.57s CPU      0.59s WALL (       2 calls)

     Called by electrons:
     c_bands      :   2376.69s CPU   3003.36s WALL (      44 calls)
     sum_band     :    112.34s CPU    149.84s WALL (      44 calls)
     v_of_rho     :      0.12s CPU      0.15s WALL (      49 calls)
     mix_rho      :      0.08s CPU      0.11s WALL (      44 calls)

     Called by c_bands:
     init_us_2    :      6.43s CPU      8.80s WALL (   10600 calls)
     ccgdiagg     :   2092.46s CPU   2622.27s WALL (    5387 calls)
     wfcrot       :    289.45s CPU    384.77s WALL (    5493 calls)

     Called by *cgdiagg:
     h_psi        :   1892.08s CPU   2461.64s WALL ( 1620778 calls)
     cdiaghg      :      6.24s CPU      6.78s WALL (    5493 calls)

     Called by h_psi:
     add_vuspsi   :     92.75s CPU    132.69s WALL ( 1620778 calls)

     General routines
     calbec       :    292.74s CPU    320.85s WALL ( 3237123 calls)
     fft          :      0.15s CPU      0.19s WALL (     219 calls)
     fftw         :   1594.58s CPU   2048.11s WALL ( 4075670 calls)
     davcio       :      4.40s CPU     10.93s WALL (   15264 calls)
 
     Parallel routines
     fft_scatter  :    590.79s CPU    779.60s WALL ( 4075889 calls)
 
     PWSCF        : 42m12.98s CPU    53m40.59s WALL

 
   This run was terminated on:   0:55:15  22Mar2018            

=------------------------------------------------------------------------------=
   JOB DONE.
=------------------------------------------------------------------------------=
