
     Program PWSCF v.5.0.2 starts on 22Mar2018 at 22:45:44 

     This program is part of the open-source Quantum ESPRESSO suite
     for quantum simulation of materials; please cite
         "P. Giannozzi et al., J. Phys.:Condens. Matter 21 395502 (2009);
          URL http://www.quantum-espresso.org", 
     in publications or presentations arising from this work. More details at
     http://www.quantum-espresso.org/quote.php

     Parallel version (MPI), running on     4 processors
     R & G space division:  proc/nbgrp/npool/nimage =       4

     Current dimensions of program PWSCF are:
     Max number of different atomic species (ntypx) = 10
     Max number of k-points (npk) =  40000
     Max angular momentum in pseudopotentials (lmaxx) =  3
     Waiting for input...
     Reading input from standard input

     Subspace diagonalization in iterative solution of the eigenvalue problem:
     a serial algorithm will be used

 
     Parallelization info
     --------------------
     sticks:   dense  smooth     PW     G-vecs:    dense   smooth      PW
     Min         396     396    112                10116    10116    1566
     Max         397     397    113                10119    10119    1567
     Sum        1585    1585    451                40467    40467    6267
 


     bravais-lattice index     =            0
     lattice parameter (alat)  =      12.0168  a.u.
     unit-cell volume          =    1187.3413 (a.u.)^3
     number of atoms/cell      =            8
     number of atomic types    =            2
     number of electrons       =       164.00
     number of Kohn-Sham states=           98
     kinetic-energy cutoff     =      40.0000  Ry
     charge density cutoff     =     160.0000  Ry
     convergence threshold     =      1.0E-04
     mixing beta               =       0.7000
     number of iterations used =            8  plain     mixing
     Exchange-correlation      = SLA-PZ-NOGX-NOGC ( 1 1 0 0 0)
     EXX-fraction              =        0.00
     nstep                     =           50


     celldm(1)=  12.016801  celldm(2)=   0.000000  celldm(3)=   0.000000
     celldm(4)=   0.000000  celldm(5)=   0.000000  celldm(6)=   0.000000

     crystal axes: (cart. coord. in units of alat)
               a(1) = (   1.000000   0.000000   0.000000 )  
               a(2) = (  -0.500000   0.866025   0.000000 )  
               a(3) = (   0.000000   0.000000   0.790093 )  

     reciprocal axes: (cart. coord. in units 2 pi/alat)
               b(1) = (  1.000000  0.577350  0.000000 )  
               b(2) = (  0.000000  1.154701  0.000000 )  
               b(3) = (  0.000000  0.000000  1.265674 )  


     PseudoPot. # 1 for Er read from file:
     /home/cwx6513/pp.La/Er.UPF
     MD5 check sum: e152ae21b84514339d8526f066caf99b
     Pseudo is Norm-conserving, Zval = 22.0
     Generated in analytical, separable form
     Using radial grid of 1267 points,  6 beta functions with: 
                l(1) =   0
                l(2) =   0
                l(3) =   1
                l(4) =   1
                l(5) =   2
                l(6) =   3

     PseudoPot. # 2 for Sm read from file:
     /home/cwx6513/pp.La/Sm.UPF
     MD5 check sum: 5079e8b144a06bfcdbc14fb02b96ab09
     Pseudo is Norm-conserving, Zval = 16.0
     Generated in analytical, separable form
     Using radial grid of 1259 points,  6 beta functions with: 
                l(1) =   0
                l(2) =   0
                l(3) =   1
                l(4) =   1
                l(5) =   2
                l(6) =   3

     atomic species   valence    mass     pseudopotential
        Mg            22.00    24.30500     Er( 1.00)
        Cd            16.00   112.41100     Sm( 1.00)

     24 Sym. Ops., with inversion, found (12 have fractional translation)



   Cartesian axes

     site n.     atom                  positions (alat units)
         1           Mg  tau(   1) = (   0.2478935   0.7204716   0.1975233  )
         2           Mg  tau(   2) = (   0.7478935   0.1455538   0.5925699  )
         3           Mg  tau(   3) = (   0.2521065   0.1455538   0.5925699  )
         4           Mg  tau(   4) = (  -0.2478935   0.7204716   0.1975233  )
         5           Mg  tau(   5) = (   0.0000000   0.2911075   0.1975233  )
         6           Mg  tau(   6) = (   0.5000000   0.5749179   0.5925699  )
         7           Cd  tau(   7) = (   0.5000005   0.2886748   0.1975233  )
         8           Cd  tau(   8) = (  -0.0000005   0.5773506   0.5925699  )

     number of k points=    64  gaussian smearing, width (Ry)=  0.1000
                       cart. coord. in units 2pi/alat
        k(    1) = (   0.0000000   0.0000000   0.0000000), wk =   0.0095238
        k(    2) = (   0.0000000   0.0000000   0.1808105), wk =   0.0190476
        k(    3) = (   0.0000000   0.0000000   0.3616210), wk =   0.0190476
        k(    4) = (   0.0000000   0.0000000   0.5424315), wk =   0.0190476
        k(    5) = (   0.0000000   0.1924501   0.0000000), wk =   0.0190476
        k(    6) = (   0.0000000   0.1924501   0.1808105), wk =   0.0380952
        k(    7) = (   0.0000000   0.1924501   0.3616210), wk =   0.0380952
        k(    8) = (   0.0000000   0.1924501   0.5424315), wk =   0.0380952
        k(    9) = (   0.0000000   0.3849002   0.0000000), wk =   0.0190476
        k(   10) = (   0.0000000   0.3849002   0.1808105), wk =   0.0380952
        k(   11) = (   0.0000000   0.3849002   0.3616210), wk =   0.0380952
        k(   12) = (   0.0000000   0.3849002   0.5424315), wk =   0.0380952
        k(   13) = (   0.0000000  -0.5773503   0.0000000), wk =   0.0095238
        k(   14) = (   0.0000000  -0.5773503   0.1808105), wk =   0.0190476
        k(   15) = (   0.0000000  -0.5773503   0.3616210), wk =   0.0190476
        k(   16) = (   0.0000000  -0.5773503   0.5424315), wk =   0.0190476
        k(   17) = (   0.2000000   0.1154701   0.0000000), wk =   0.0190476
        k(   18) = (   0.2000000   0.1154701   0.1808105), wk =   0.0380952
        k(   19) = (   0.2000000   0.1154701   0.3616210), wk =   0.0380952
        k(   20) = (   0.2000000   0.1154701   0.5424315), wk =   0.0380952
        k(   21) = (   0.2000000   0.3079201   0.0000000), wk =   0.0190476
        k(   22) = (   0.2000000   0.3079201   0.1808105), wk =   0.0380952
        k(   23) = (   0.2000000   0.3079201   0.3616210), wk =   0.0380952
        k(   24) = (   0.2000000   0.3079201   0.5424315), wk =   0.0380952
        k(   25) = (   0.2000000   0.5003702   0.0000000), wk =   0.0190476
        k(   26) = (   0.2000000   0.5003702   0.1808105), wk =   0.0380952
        k(   27) = (   0.2000000   0.5003702   0.3616210), wk =   0.0380952
        k(   28) = (   0.2000000   0.5003702   0.5424315), wk =   0.0380952
        k(   29) = (   0.2000000  -0.4618802   0.0000000), wk =   0.0190476
        k(   30) = (   0.2000000  -0.4618802   0.1808105), wk =   0.0380952
        k(   31) = (   0.2000000  -0.4618802   0.3616210), wk =   0.0380952
        k(   32) = (   0.2000000  -0.4618802   0.5424315), wk =   0.0380952
        k(   33) = (   0.2000000  -0.2694301   0.0000000), wk =   0.0190476
        k(   34) = (   0.2000000  -0.2694301   0.1808105), wk =   0.0380952
        k(   35) = (   0.2000000  -0.2694301   0.3616210), wk =   0.0380952
        k(   36) = (   0.2000000  -0.2694301   0.5424315), wk =   0.0380952
        k(   37) = (   0.2000000  -0.0769800   0.0000000), wk =   0.0190476
        k(   38) = (   0.2000000  -0.0769800   0.1808105), wk =   0.0380952
        k(   39) = (   0.2000000  -0.0769800   0.3616210), wk =   0.0380952
        k(   40) = (   0.2000000  -0.0769800   0.5424315), wk =   0.0380952
        k(   41) = (   0.4000000   0.2309401   0.0000000), wk =   0.0190476
        k(   42) = (   0.4000000   0.2309401   0.1808105), wk =   0.0380952
        k(   43) = (   0.4000000   0.2309401   0.3616210), wk =   0.0380952
        k(   44) = (   0.4000000   0.2309401   0.5424315), wk =   0.0380952
        k(   45) = (   0.4000000   0.4233902   0.0000000), wk =   0.0190476
        k(   46) = (   0.4000000   0.4233902   0.1808105), wk =   0.0380952
        k(   47) = (   0.4000000   0.4233902   0.3616210), wk =   0.0380952
        k(   48) = (   0.4000000   0.4233902   0.5424315), wk =   0.0380952
        k(   49) = (   0.4000000   0.6158403   0.0000000), wk =   0.0190476
        k(   50) = (   0.4000000   0.6158403   0.1808105), wk =   0.0380952
        k(   51) = (   0.4000000   0.6158403   0.3616210), wk =   0.0380952
        k(   52) = (   0.4000000   0.6158403   0.5424315), wk =   0.0380952
        k(   53) = (   0.4000000  -0.3464102   0.0000000), wk =   0.0190476
        k(   54) = (   0.4000000  -0.3464102   0.1808105), wk =   0.0380952
        k(   55) = (   0.4000000  -0.3464102   0.3616210), wk =   0.0380952
        k(   56) = (   0.4000000  -0.3464102   0.5424315), wk =   0.0380952
        k(   57) = (   0.4000000  -0.1539601   0.0000000), wk =   0.0190476
        k(   58) = (   0.4000000  -0.1539601   0.1808105), wk =   0.0380952
        k(   59) = (   0.4000000  -0.1539601   0.3616210), wk =   0.0380952
        k(   60) = (   0.4000000  -0.1539601   0.5424315), wk =   0.0380952
        k(   61) = (   0.4000000   0.0384900   0.0000000), wk =   0.0190476
        k(   62) = (   0.4000000   0.0384900   0.1808105), wk =   0.0380952
        k(   63) = (   0.4000000   0.0384900   0.3616210), wk =   0.0380952
        k(   64) = (   0.4000000   0.0384900   0.5424315), wk =   0.0380952

     Dense  grid:    40467 G-vectors     FFT dimensions: (  50,  50,  40)

     Largest allocated arrays     est. size (Mb)     dimensions
        Kohn-Sham Wavefunctions         1.94 Mb     (   1298,   98)
        NL pseudopotentials             3.17 Mb     (   1298,  160)
        Each V/rho on FFT grid          0.38 Mb     (  25000)
        Each G-vector array             0.08 Mb     (  10119)
        G-vector shells                 0.08 Mb     (  10119)
     Largest temporary arrays     est. size (Mb)     dimensions
        Each subspace H/S matrix        0.15 Mb     (  98,  98)
        Each <psi_i|beta_j> matrix      0.24 Mb     (    160,   98)
        Arrays for rho mixing           3.05 Mb     (  25000,   8)

     Initial potential from superposition of free atoms

     Starting from uniform charge
     Starting wfc are    0 randomized atomic wfcs

     total cpu time spent up to now is       10.5 secs

     Self-consistent Calculation

     iteration #  1     ecut=    40.00 Ry     beta=0.70
     CG style diagonalization
     ethr =  1.00E-02,  avg # of iterations = 18.2

     total cpu time spent up to now is      259.8 secs

     total energy              =   -1678.60469946 Ry
     Harris-Foulkes estimate   =   -2968.00495292 Ry
     estimated scf accuracy    <    1586.01964601 Ry

     iteration #  2     ecut=    40.00 Ry     beta=0.70
     CG style diagonalization
     c_bands:  2 eigenvalues not converged
     c_bands:  2 eigenvalues not converged
     c_bands:  1 eigenvalues not converged
     c_bands:  3 eigenvalues not converged
     c_bands:  3 eigenvalues not converged
     c_bands:  2 eigenvalues not converged
     c_bands:  2 eigenvalues not converged
     c_bands:  1 eigenvalues not converged
     c_bands:  5 eigenvalues not converged
     c_bands:  1 eigenvalues not converged
     c_bands:  2 eigenvalues not converged
     c_bands:  3 eigenvalues not converged
     c_bands:  2 eigenvalues not converged
     c_bands:  1 eigenvalues not converged
     c_bands:  4 eigenvalues not converged
     c_bands:  1 eigenvalues not converged
     c_bands:  4 eigenvalues not converged
     c_bands:  2 eigenvalues not converged
     c_bands:  1 eigenvalues not converged
     c_bands:  2 eigenvalues not converged
     c_bands:  1 eigenvalues not converged
     c_bands:  3 eigenvalues not converged
     c_bands:  4 eigenvalues not converged
     c_bands:  2 eigenvalues not converged
     c_bands:  4 eigenvalues not converged
     c_bands:  4 eigenvalues not converged
     c_bands:  1 eigenvalues not converged
     c_bands:  1 eigenvalues not converged
     c_bands:  2 eigenvalues not converged
     c_bands:  4 eigenvalues not converged
     c_bands:  2 eigenvalues not converged
     c_bands:  2 eigenvalues not converged
     c_bands:  1 eigenvalues not converged
     c_bands:  4 eigenvalues not converged
     c_bands:  2 eigenvalues not converged
     ethr =  1.00E-02,  avg # of iterations = 15.4

     total cpu time spent up to now is      452.3 secs

     total energy              =   -1717.51638867 Ry
     Harris-Foulkes estimate   =   -2784.31308397 Ry
     estimated scf accuracy    <    2093.63052377 Ry

     iteration #  3     ecut=    40.00 Ry     beta=0.70
     CG style diagonalization
     c_bands:  2 eigenvalues not converged
     c_bands:  1 eigenvalues not converged
     c_bands:  3 eigenvalues not converged
     c_bands:  1 eigenvalues not converged
     c_bands:  1 eigenvalues not converged
     c_bands:  1 eigenvalues not converged
     c_bands:  1 eigenvalues not converged
     c_bands:  1 eigenvalues not converged
     c_bands:  1 eigenvalues not converged
     c_bands:  1 eigenvalues not converged
     c_bands:  3 eigenvalues not converged
     c_bands:  1 eigenvalues not converged
     c_bands:  1 eigenvalues not converged
     c_bands:  1 eigenvalues not converged
     c_bands:  1 eigenvalues not converged
     c_bands:  1 eigenvalues not converged
     c_bands:  1 eigenvalues not converged
     c_bands:  1 eigenvalues not converged
     c_bands:  1 eigenvalues not converged
     c_bands:  1 eigenvalues not converged
     c_bands:  1 eigenvalues not converged
     c_bands:  1 eigenvalues not converged
     c_bands:  1 eigenvalues not converged
     c_bands:  2 eigenvalues not converged
     c_bands:  1 eigenvalues not converged
     c_bands:  1 eigenvalues not converged
     c_bands:  1 eigenvalues not converged
     c_bands:  1 eigenvalues not converged
     c_bands:  1 eigenvalues not converged
     c_bands:  2 eigenvalues not converged
     c_bands:  2 eigenvalues not converged
     ethr =  1.00E-02,  avg # of iterations = 11.9

     total cpu time spent up to now is      606.0 secs

     total energy              =   -2203.44950077 Ry
     Harris-Foulkes estimate   =   -2372.84683329 Ry
     estimated scf accuracy    <     395.89717580 Ry

     iteration #  4     ecut=    40.00 Ry     beta=0.70
     CG style diagonalization
     ethr =  1.00E-02,  avg # of iterations =  7.9

     total cpu time spent up to now is      710.6 secs

     total energy              =   -2272.21102934 Ry
     Harris-Foulkes estimate   =   -2297.17334098 Ry
     estimated scf accuracy    <      60.05799844 Ry

     iteration #  5     ecut=    40.00 Ry     beta=0.70
     CG style diagonalization
     ethr =  1.00E-02,  avg # of iterations =  4.0

     total cpu time spent up to now is      763.8 secs

     total energy              =   -2278.61731457 Ry
     Harris-Foulkes estimate   =   -2280.51649659 Ry
     estimated scf accuracy    <       4.68503562 Ry

     iteration #  6     ecut=    40.00 Ry     beta=0.70
     CG style diagonalization
     ethr =  2.86E-03,  avg # of iterations =  3.4

     total cpu time spent up to now is      807.6 secs

     total energy              =   -2278.49735559 Ry
     Harris-Foulkes estimate   =   -2279.13134800 Ry
     estimated scf accuracy    <       1.10448807 Ry

     iteration #  7     ecut=    40.00 Ry     beta=0.70
     CG style diagonalization
     ethr =  6.73E-04,  avg # of iterations =  4.2

     total cpu time spent up to now is      862.4 secs

     total energy              =   -2278.77595086 Ry
     Harris-Foulkes estimate   =   -2278.82659251 Ry
     estimated scf accuracy    <       0.10579976 Ry

     iteration #  8     ecut=    40.00 Ry     beta=0.70
     CG style diagonalization
     c_bands:  1 eigenvalues not converged
     c_bands:  3 eigenvalues not converged
     c_bands:  1 eigenvalues not converged
     c_bands:  2 eigenvalues not converged
     c_bands:  1 eigenvalues not converged
     c_bands:  1 eigenvalues not converged
     c_bands:  1 eigenvalues not converged
     c_bands:  1 eigenvalues not converged
     c_bands:  1 eigenvalues not converged
     c_bands:  1 eigenvalues not converged
     c_bands:  1 eigenvalues not converged
     c_bands:  1 eigenvalues not converged
     c_bands:  1 eigenvalues not converged
     c_bands:  1 eigenvalues not converged
     c_bands:  1 eigenvalues not converged
     c_bands:  1 eigenvalues not converged
     c_bands:  1 eigenvalues not converged
     c_bands:  1 eigenvalues not converged
     c_bands:  1 eigenvalues not converged
     c_bands:  1 eigenvalues not converged
     ethr =  6.45E-05,  avg # of iterations =  4.1

     total cpu time spent up to now is      917.0 secs

     total energy              =   -2278.80058397 Ry
     Harris-Foulkes estimate   =   -2278.80495737 Ry
     estimated scf accuracy    <       0.00818566 Ry

     iteration #  9     ecut=    40.00 Ry     beta=0.70
     CG style diagonalization
     c_bands:  1 eigenvalues not converged
     c_bands:  1 eigenvalues not converged
     c_bands:  1 eigenvalues not converged
     c_bands:  1 eigenvalues not converged
     c_bands:  1 eigenvalues not converged
     c_bands:  1 eigenvalues not converged
     c_bands:  1 eigenvalues not converged
     c_bands:  1 eigenvalues not converged
     c_bands:  1 eigenvalues not converged
     c_bands:  1 eigenvalues not converged
     c_bands:  1 eigenvalues not converged
     c_bands:  1 eigenvalues not converged
     c_bands:  1 eigenvalues not converged
     c_bands:  1 eigenvalues not converged
     ethr =  4.99E-06,  avg # of iterations =  4.3

     total cpu time spent up to now is      974.0 secs

     total energy              =   -2278.80369508 Ry
     Harris-Foulkes estimate   =   -2278.80428087 Ry
     estimated scf accuracy    <       0.00099102 Ry

     iteration # 10     ecut=    40.00 Ry     beta=0.70
     CG style diagonalization
     c_bands:  1 eigenvalues not converged
     c_bands:  1 eigenvalues not converged
     c_bands:  1 eigenvalues not converged
     c_bands:  1 eigenvalues not converged
     ethr =  6.04E-07,  avg # of iterations =  3.9

     total cpu time spent up to now is     1023.3 secs

     total energy              =   -2278.80401572 Ry
     Harris-Foulkes estimate   =   -2278.80415368 Ry
     estimated scf accuracy    <       0.00039729 Ry

     iteration # 11     ecut=    40.00 Ry     beta=0.70
     CG style diagonalization
     ethr =  2.42E-07,  avg # of iterations =  3.2

     total cpu time spent up to now is     1062.1 secs

     End of self-consistent calculation

          k = 0.0000 0.0000 0.0000 (  5047 PWs)   bands (ev):

   -76.5181 -76.5181 -76.5169 -76.4877 -76.4876 -76.4721 -38.5481 -38.5182
   -38.5083 -38.4925 -38.4925 -38.4671 -38.4671 -38.4455 -38.4455 -38.4242
   -38.4223 -38.4223 -38.4071 -38.4070 -38.3885 -38.3841 -38.3841 -38.3575
   -32.1762 -32.1751  -7.4879  -7.4741  -7.4085  -7.4085  -7.3967  -7.3967
     7.4618   7.5670   7.5670   7.6257   7.7541   7.9589   7.9590   7.9715
     7.9721   7.9721   8.0414   8.1882   8.1882   8.4825   8.5528   8.5529
     8.6289   8.6936   8.6937   8.7709   8.7710   8.8455   8.8456   9.0188
     9.0188   9.1898   9.1898   9.2330   9.3649   9.4017  11.5553  16.7962
    16.8195  16.8196  18.0039  18.4057  18.4058  19.5567  21.3295  21.3296
    21.4715  21.6211  21.6211  22.9319  22.9320  23.3723  23.6108  23.6109
    24.9759  25.0823  25.0823  25.0829  25.0829  26.3857  26.3857  26.7216
    27.4712  27.7654  28.5868  28.9602  28.9603  29.8814  30.8929  30.8931
    30.9808  31.2913

          k = 0.0000 0.0000 0.1808 (  5065 PWs)   bands (ev):

   -76.5157 -76.5111 -76.5111 -76.5097 -76.5097 -76.4922 -38.5485 -38.5351
   -38.5040 -38.4986 -38.4985 -38.4687 -38.4687 -38.4529 -38.4528 -38.4224
   -38.4224 -38.4112 -38.4111 -38.4110 -38.4097 -38.3911 -38.3911 -38.3665
   -32.1761 -32.1755  -7.4873  -7.4762  -7.4104  -7.4103  -7.3971  -7.3971
     7.4838   7.5914   7.5914   7.6002   7.7553   7.8925   7.8926   7.9717
     7.9718   8.0316   8.1139   8.1640   8.1640   8.3452   8.6326   8.6327
     8.6788   8.6918   8.6919   8.7579   8.7580   8.8790   8.8791   8.9121
     8.9121   9.2054   9.2720   9.2720   9.3549   9.3609  11.7119  16.4423
    16.9299  16.9300  18.2069  18.4397  18.4398  19.1300  21.0920  21.0921
    21.2835  21.2835  22.2270  22.8608  22.8608  23.2342  23.7211  23.7211
    24.8179  24.8179  24.9656  25.1965  25.1965  26.8470  26.9690  26.9977
    27.2247  27.2247  28.7860  28.7861  29.2079  30.6788  30.8958  31.1542
    31.1546  31.6254

          k = 0.0000 0.0000 0.3616 (  5047 PWs)   bands (ev):

   -76.5162 -76.5082 -76.5081 -76.5033 -76.5032 -76.4657 -38.5497 -38.5244
   -38.4947 -38.4947 -38.4811 -38.4811 -38.4614 -38.4402 -38.4284 -38.4284
   -38.4222 -38.4221 -38.4096 -38.3958 -38.3957 -38.3885 -38.3885 -38.3749
   -32.1760 -32.1751  -7.4831  -7.4778  -7.4065  -7.4065  -7.3996  -7.3996
     7.5421   7.5970   7.6570   7.6570   7.7392   7.8232   7.8233   7.9380
     7.9381   8.0845   8.0845   8.1054   8.2035   8.2727   8.6477   8.6478
     8.6598   8.6598   8.6792   8.8310   8.8310   8.8360   8.8360   8.9791
     8.9791   9.0431   9.3158   9.3289   9.3290   9.3503  12.1992  15.3951
    17.2600  17.2601  18.4725  18.4726  18.7516  19.1015  20.5002  20.5003
    20.6836  20.6837  22.6221  22.7693  22.8950  22.8950  23.7115  23.7115
    24.7248  24.7248  25.0658  25.2955  25.2955  25.7733  27.2238  27.6621
    28.6655  28.6655  28.8730  28.8731  30.0986  30.4876  31.3088  31.7138
    31.7990  31.8038

          k = 0.0000 0.0000 0.5424 (  5041 PWs)   bands (ev):

   -76.5128 -76.5127 -76.4973 -76.4972 -76.4875 -76.4836 -38.5288 -38.5274
   -38.4962 -38.4962 -38.4868 -38.4868 -38.4467 -38.4297 -38.4252 -38.4252
   -38.4200 -38.4200 -38.4002 -38.3972 -38.3972 -38.3915 -38.3914 -38.3836
   -32.1757 -32.1752  -7.4821  -7.4819  -7.4031  -7.4030  -7.4009  -7.4009
     7.6180   7.6674   7.7078   7.7403   7.7404   7.7986   7.7986   7.8661
     7.9098   7.9099   7.9723   7.9724   8.4466   8.4619   8.5940   8.6129
     8.6130   8.6134   8.6135   8.7631   8.8443   8.8444   8.8636   8.8637
     9.1569   9.1569   9.2894   9.2894   9.3205   9.3352  13.0271  14.1323
    17.7698  17.7699  18.2722  18.2722  19.3581  19.4404  20.0910  20.0910
    20.2131  20.2131  22.1633  22.1668  23.1532  23.1532  23.4846  23.4847
    24.8437  24.8437  25.0901  25.0901  25.1125  25.2568  28.7356  28.8188
    29.5735  29.5735  29.8352  29.8352  30.0273  30.3199  30.8045  31.1188
    31.4589  31.4631

          k = 0.0000 0.1925 0.0000 (  5083 PWs)   bands (ev):

   -76.5346 -76.5287 -76.5146 -76.5128 -76.5061 -76.4949 -38.5373 -38.5325
   -38.5089 -38.5029 -38.4945 -38.4765 -38.4708 -38.4586 -38.4530 -38.4376
   -38.4330 -38.4289 -38.4181 -38.4150 -38.4036 -38.4009 -38.3949 -38.3713
   -32.1764 -32.1754  -7.4882  -7.4766  -7.4120  -7.4114  -7.4005  -7.3992
     7.5213   7.5954   7.6437   7.6588   7.8128   7.8753   7.9607   7.9780
     8.0432   8.0490   8.0833   8.1845   8.2167   8.5000   8.5071   8.5380
     8.6299   8.6709   8.7070   8.7377   8.7730   8.8345   8.8403   8.9866
     9.0176   9.0789   9.1064   9.2352   9.3086   9.3837  11.7225  15.7400
    16.5494  16.6717  18.4501  18.7184  19.2149  19.4914  20.9994  21.1715
    21.6617  21.9656  22.0977  22.3979  22.4453  22.8217  23.7520  24.0493
    24.0545  24.3806  25.2649  25.9094  25.9424  26.4481  26.5109  27.3300
    27.4562  27.9211  28.1101  28.9283  29.1227  30.2298  30.8762  31.1120
    31.1275  31.3136

          k = 0.0000 0.1925 0.1808 (  5077 PWs)   bands (ev):

   -76.5314 -76.5255 -76.5100 -76.5090 -76.5065 -76.4964 -38.5337 -38.5290
   -38.5054 -38.5037 -38.4973 -38.4826 -38.4725 -38.4538 -38.4457 -38.4332
   -38.4256 -38.4242 -38.4175 -38.4143 -38.4099 -38.3981 -38.3963 -38.3700
   -32.1764 -32.1753  -7.4864  -7.4784  -7.4110  -7.4102  -7.4016  -7.3990
     7.5403   7.6164   7.6384   7.6664   7.8146   7.8808   7.9041   7.9781
     8.0325   8.0510   8.1501   8.1549   8.1872   8.3713   8.5864   8.6182
     8.6612   8.6821   8.7026   8.7119   8.7652   8.8530   8.8637   8.9020
     8.9082   9.1305   9.1914   9.2550   9.3125   9.3266  11.8827  15.8778
    16.4144  16.7795  17.9243  18.7281  19.2155  19.8363  20.6165  20.6987
    21.6181  21.6769  22.0721  22.5500  22.7553  23.0369  23.8753  24.0020
    24.0576  24.4299  25.0948  25.6751  25.6957  26.6902  26.9585  27.3196
    27.5905  27.9273  28.2890  28.7797  29.7474  30.3559  30.9111  30.9152
    31.2273  31.5285

          k = 0.0000 0.1925 0.3616 (  5061 PWs)   bands (ev):

   -76.5190 -76.5138 -76.5122 -76.5095 -76.4988 -76.4859 -38.5343 -38.5274
   -38.4965 -38.4949 -38.4805 -38.4785 -38.4739 -38.4396 -38.4385 -38.4329
   -38.4250 -38.4238 -38.4142 -38.4129 -38.3981 -38.3961 -38.3946 -38.3789
   -32.1760 -32.1751  -7.4831  -7.4794  -7.4089  -7.4084  -7.4029  -7.3994
     7.5892   7.6334   7.6777   7.7261   7.7983   7.8451   7.8515   7.9428
     8.0127   8.0818   8.1104   8.1431   8.1781   8.3035   8.6063   8.6355
     8.6461   8.6666   8.6712   8.7900   8.7968   8.8117   8.8391   8.9520
     8.9799   9.0286   9.2435   9.2449   9.2603   9.3405  12.3710  15.5077
    16.3114  17.0992  17.6628  18.6358  19.5598  19.8511  20.1278  20.2239
    20.9070  21.1132  22.4158  22.7378  22.7482  23.1332  23.6614  23.7900
    24.2629  24.6645  24.9535  25.4727  25.5347  26.8686  27.3074  27.6603
    28.0423  28.7149  28.9718  29.3248  30.3622  30.5331  30.5912  31.0422
    31.4636  31.8178

          k = 0.0000 0.1925 0.5424 (  5050 PWs)   bands (ev):

   -76.5179 -76.5128 -76.5095 -76.5019 -76.4935 -76.4792 -38.5384 -38.5296
   -38.5015 -38.4990 -38.4899 -38.4894 -38.4422 -38.4324 -38.4299 -38.4261
   -38.4260 -38.4203 -38.4024 -38.4023 -38.3963 -38.3928 -38.3927 -38.3843
   -32.1756 -32.1752  -7.4818  -7.4812  -7.4063  -7.4050  -7.4040  -7.4012
     7.6514   7.6927   7.7300   7.7939   7.7962   7.8306   7.8329   7.8750
     7.9577   7.9789   7.9943   8.0138   8.4310   8.4703   8.5654   8.5828
     8.6078   8.6141   8.6236   8.7278   8.8111   8.8400   8.8415   8.8627
     9.0884   9.1486   9.2081   9.2335   9.2545   9.3058  13.1900  14.2846
    16.8979  17.4828  17.6039  18.2008  19.5219  19.8531  20.1755  20.4166
    20.4882  20.5411  22.1501  22.2058  23.0813  23.1755  23.3941  23.4680
    24.6436  24.7948  24.9222  25.1144  25.6632  26.2910  28.6036  28.6701
    29.0031  29.4733  29.8189  29.8765  30.2699  30.3365  30.4822  31.0272
    31.2267  31.4090

          k = 0.0000 0.3849 0.0000 (  5079 PWs)   bands (ev):

   -76.5336 -76.5246 -76.5176 -76.5094 -76.5048 -76.4984 -38.5244 -38.5172
   -38.5044 -38.4895 -38.4842 -38.4774 -38.4746 -38.4498 -38.4469 -38.4386
   -38.4335 -38.4318 -38.4286 -38.4196 -38.4141 -38.4053 -38.3984 -38.3852
   -32.1762 -32.1753  -7.4845  -7.4775  -7.4142  -7.4134  -7.4070  -7.4009
     7.5983   7.7340   7.7510   7.8116   7.8528   7.8662   7.9783   8.0678
     8.1047   8.1495   8.1834   8.2007   8.2673   8.3830   8.5012   8.5646
     8.5908   8.6510   8.6726   8.7291   8.7666   8.8077   8.8527   8.8877
     8.8957   8.9150   8.9957   9.0550   9.2957   9.3483  12.2185  14.4135
    16.1382  16.4635  18.8398  19.3632  19.4315  20.3206  20.6917  21.1542
    21.1594  21.4425  21.9554  22.2993  22.8954  22.9963  23.0518  24.3108
    24.6066  24.7714  25.0995  25.8303  26.2302  26.5640  26.6065  26.6291
    27.1443  28.0258  29.4259  29.7995  29.9945  30.0573  30.6640  30.6843
    31.2617  31.4410

          k = 0.0000 0.3849 0.1808 (  5090 PWs)   bands (ev):

   -76.5332 -76.5295 -76.5234 -76.5203 -76.5068 -76.5001 -38.5230 -38.5180
   -38.5024 -38.4977 -38.4946 -38.4811 -38.4735 -38.4560 -38.4500 -38.4388
   -38.4358 -38.4302 -38.4292 -38.4251 -38.4127 -38.4086 -38.4021 -38.3908
   -32.1762 -32.1754  -7.4847  -7.4798  -7.4142  -7.4131  -7.4079  -7.4010
     7.6147   7.7145   7.7589   7.8581   7.8674   7.8675   7.9489   8.0565
     8.0813   8.1117   8.2090   8.2389   8.2394   8.4395   8.4513   8.5671
     8.5938   8.6201   8.6896   8.7168   8.7635   8.7740   8.8177   8.8881
     8.8939   9.0005   9.0118   9.0621   9.2678   9.3234  12.3787  14.5686
    16.2153  16.5648  17.7371  19.3119  19.6891  20.0972  20.4212  20.9716
    21.4556  21.6373  22.0813  22.3794  22.7101  23.2033  23.2393  24.2841
    24.5148  24.7498  24.9127  25.6429  26.0590  26.2348  26.7458  27.2138
    28.1734  28.4884  28.7382  29.6323  29.6888  30.3575  30.6257  30.7910
    31.4454  31.4998

          k = 0.0000 0.3849 0.3616 (  5078 PWs)   bands (ev):

   -76.5260 -76.5234 -76.5170 -76.5151 -76.5051 -76.4952 -38.5260 -38.5204
   -38.5006 -38.4963 -38.4869 -38.4786 -38.4721 -38.4492 -38.4464 -38.4412
   -38.4303 -38.4277 -38.4217 -38.4147 -38.4098 -38.4049 -38.3978 -38.3921
   -32.1759 -32.1752  -7.4841  -7.4817  -7.4116  -7.4103  -7.4076  -7.4016
     7.6528   7.7082   7.7563   7.8696   7.8803   7.9215   7.9673   7.9900
     8.1064   8.1143   8.1819   8.2050   8.2294   8.3746   8.4881   8.5719
     8.5985   8.6354   8.6936   8.7023   8.7034   8.7595   8.8300   8.9203
     8.9465   9.0170   9.0394   9.0535   9.1136   9.3512  12.8596  15.0164
    15.8635  16.8723  16.8842  18.7797  18.9624  20.0391  20.3088  21.2422
    21.2575  21.4728  22.2366  22.6431  22.8587  23.1468  23.6449  23.7313
    24.1641  24.7397  25.0559  25.6742  25.9414  26.7940  27.3272  28.0106
    28.3356  28.9522  28.9676  29.4310  29.7662  30.3875  30.6729  31.2793
    31.6068  31.7709

          k = 0.0000 0.3849 0.5424 (  5051 PWs)   bands (ev):

   -76.5170 -76.5090 -76.5069 -76.5048 -76.4917 -76.4871 -38.5203 -38.5196
   -38.4969 -38.4909 -38.4842 -38.4725 -38.4467 -38.4451 -38.4387 -38.4354
   -38.4307 -38.4266 -38.4109 -38.4050 -38.4023 -38.3993 -38.3915 -38.3840
   -32.1754 -32.1751  -7.4829  -7.4817  -7.4084  -7.4074  -7.4062  -7.4031
     7.6914   7.7173   7.7846   7.8578   7.8880   7.9154   7.9292   8.0129
     8.0606   8.0957   8.1497   8.1722   8.3593   8.4444   8.4733   8.5521
     8.6021   8.6077   8.6369   8.6792   8.7344   8.8032   8.8049   8.8517
     8.9323   9.0103   9.0124   9.0192   9.2143   9.3166  13.6518  14.7046
    15.7140  16.4697  17.3757  18.0413  18.8952  19.5301  20.5200  20.8712
    21.4649  21.6148  22.1112  22.2168  23.0662  23.2605  23.4004  23.5602
    24.3278  24.9248  25.0136  25.2852  26.6816  27.3765  28.1430  28.1865
    28.3856  28.7819  29.0250  30.2110  30.3854  30.6596  30.9183  30.9393
    31.3180  31.7454

          k = 0.0000-0.5774 0.0000 (  5068 PWs)   bands (ev):

   -76.5163 -76.5141 -76.5128 -76.5097 -76.5059 -76.5030 -38.5300 -38.4942
   -38.4931 -38.4882 -38.4874 -38.4613 -38.4578 -38.4482 -38.4365 -38.4365
   -38.4341 -38.4341 -38.4337 -38.4290 -38.4135 -38.4033 -38.4022 -38.3927
   -32.1758 -32.1755  -7.4843  -7.4791  -7.4143  -7.4141  -7.4086  -7.3993
     7.6270   7.7759   7.7889   7.8510   7.9959   7.9991   8.0153   8.0879
     8.0953   8.1267   8.1508   8.2471   8.2863   8.4077   8.5623   8.5671
     8.5978   8.6429   8.6735   8.6827   8.6914   8.7309   8.7808   8.8228
     8.8752   8.8852   8.9202   8.9600   9.2985   9.3313  12.7591  13.5866
    15.9604  16.3805  19.2396  19.3029  20.0692  20.2833  20.4499  20.5806
    20.9506  21.1906  22.4198  22.5463  22.8220  22.8615  23.4857  24.5343
    24.7732  24.9643  25.1375  25.6430  25.9193  26.1784  26.2024  26.7012
    27.8055  28.3229  28.5426  29.7968  30.5131  30.6454  30.9092  30.9506
    31.4818  31.5248

          k = 0.0000-0.5774 0.1808 (  5072 PWs)   bands (ev):

   -76.5220 -76.5209 -76.5144 -76.5094 -76.5018 -76.5011 -38.5297 -38.5074
   -38.5004 -38.4935 -38.4816 -38.4662 -38.4620 -38.4560 -38.4384 -38.4373
   -38.4360 -38.4340 -38.4243 -38.4235 -38.4063 -38.4051 -38.3982 -38.3926
   -32.1758 -32.1754  -7.4837  -7.4796  -7.4137  -7.4136  -7.4084  -7.4014
     7.6416   7.7608   7.8518   7.8530   7.8949   8.0180   8.0315   8.0542
     8.0769   8.1616   8.2237   8.2914   8.2965   8.3726   8.4922   8.5501
     8.5974   8.6051   8.6363   8.6573   8.7187   8.7688   8.7786   8.8222
     8.8852   8.9268   8.9504   8.9542   9.2461   9.3273  12.9129  13.7531
    16.0877  16.4831  17.8159  19.4376  19.6682  20.0634  20.4893  20.8697
    21.3695  21.4554  22.4873  22.8337  22.8876  23.0063  23.0411  24.3161
    24.7569  24.9702  25.0769  25.1191  25.8563  26.5335  26.8390  26.9375
    27.9238  28.4517  28.8814  30.1192  30.2398  30.2538  30.3497  31.2465
    31.6002  31.6180

          k = 0.0000-0.5774 0.3616 (  5090 PWs)   bands (ev):

   -76.5394 -76.5256 -76.5212 -76.5198 -76.5066 -76.4984 -38.5275 -38.5126
   -38.5050 -38.4978 -38.4883 -38.4769 -38.4737 -38.4692 -38.4477 -38.4457
   -38.4436 -38.4279 -38.4195 -38.4169 -38.4152 -38.4021 -38.3994 -38.3986
   -32.1757 -32.1755  -7.4846  -7.4828  -7.4136  -7.4113  -7.4101  -7.4027
     7.6762   7.7381   7.7992   7.9303   7.9503   7.9537   8.0094   8.0552
     8.0957   8.2612   8.2740   8.2763   8.3110   8.3319   8.4015   8.5330
     8.5861   8.6117   8.6187   8.6247   8.7071   8.7597   8.8152   8.8548
     8.8559   8.9421   8.9443   9.0233   9.0728   9.3558  13.3724  14.2360
    16.2620  16.3848  16.7852  18.5905  18.7903  19.9612  20.5903  20.9840
    21.6447  21.9857  22.2695  22.7200  22.7316  23.3840  23.4029  23.7999
    24.4896  24.8696  25.2809  25.5054  25.5843  26.7589  27.4024  27.7796
    28.3378  28.5214  29.3067  29.9844  30.5425  30.6349  30.7717  30.9041
    31.0432  31.6213

          k = 0.0000-0.5774 0.5424 (  5080 PWs)   bands (ev):

   -76.5367 -76.5204 -76.5163 -76.5153 -76.5033 -76.4955 -38.5211 -38.5124
   -38.4985 -38.4868 -38.4853 -38.4824 -38.4725 -38.4594 -38.4506 -38.4475
   -38.4446 -38.4315 -38.4181 -38.4167 -38.4098 -38.4028 -38.3962 -38.3921
   -32.1756 -32.1753  -7.4831  -7.4830  -7.4140  -7.4116  -7.4068  -7.4044
     7.7075   7.7198   7.8136   7.8655   7.9283   7.9649   7.9933   8.1103
     8.1900   8.2604   8.2819   8.3074   8.3086   8.3484   8.3681   8.5515
     8.5864   8.6092   8.6466   8.6595   8.6943   8.7235   8.7636   8.8115
     8.8236   8.8843   8.9142   8.9334   9.2175   9.3224  14.1233  14.9845
    15.1388  15.8345  17.2849  17.9640  18.6283  19.3440  20.7366  20.9004
    21.8927  22.0603  22.0647  22.2485  23.1725  23.4084  23.4140  23.6644
    24.2033  24.8471  25.2441  25.8125  26.6237  27.0443  27.5503  28.0209
    28.2730  29.1992  29.7077  30.0850  30.3141  30.4338  30.9569  30.9589
    31.2362  31.8512

          k = 0.2000 0.1155 0.0000 (  5087 PWs)   bands (ev):

   -76.5339 -76.5237 -76.5172 -76.5117 -76.5085 -76.5073 -38.5360 -38.5310
   -38.5125 -38.4989 -38.4911 -38.4746 -38.4731 -38.4541 -38.4531 -38.4357
   -38.4349 -38.4286 -38.4282 -38.4195 -38.4103 -38.4042 -38.4001 -38.3701
   -32.1764 -32.1754  -7.4877  -7.4765  -7.4125  -7.4115  -7.4036  -7.3994
     7.5414   7.6126   7.6722   7.6764   7.8315   7.8597   7.9622   7.9855
     8.0624   8.0724   8.1005   8.1813   8.2273   8.4801   8.5149   8.5313
     8.6316   8.6591   8.7118   8.7259   8.7734   8.8301   8.8400   8.9737
     9.0158   9.0427   9.0712   9.2143   9.2993   9.3770  11.7954  15.4625
    16.4628  16.6253  18.5110  18.8391  19.4659  19.5001  20.9253  21.1554
    21.6493  22.0446  22.2089  22.2447  22.2702  22.8178  23.5967  24.0507
    24.1121  24.4544  25.3865  25.7525  26.0551  26.4745  26.6859  27.1756
    27.6347  27.8145  28.1900  29.0111  29.3025  30.3647  30.8500  30.9772
    31.2067  31.3493

          k = 0.2000 0.1155 0.1808 (  5078 PWs)   bands (ev):

   -76.5261 -76.5251 -76.5132 -76.5092 -76.5049 -76.5030 -38.5295 -38.5277
   -38.5022 -38.5017 -38.4969 -38.4802 -38.4682 -38.4520 -38.4488 -38.4364
   -38.4263 -38.4229 -38.4213 -38.4134 -38.4133 -38.4042 -38.3977 -38.3740
   -32.1763 -32.1753  -7.4861  -7.4786  -7.4118  -7.4107  -7.4032  -7.3986
     7.5594   7.6312   7.6542   7.6982   7.8333   7.8763   7.9095   7.9865
     8.0421   8.0746   8.1486   8.1660   8.1960   8.3823   8.5658   8.6113
     8.6500   8.6819   8.6944   8.7063   8.7677   8.8403   8.8595   8.8996
     8.9028   9.1065   9.1582   9.2260   9.3055   9.3211  11.9567  15.6054
    16.3845  16.7324  17.8419  18.8370  19.4315  20.0029  20.5334  20.6234
    21.6704  21.7279  22.0139  22.4570  22.6765  23.0922  23.7552  24.0350
    24.0902  24.4839  25.0908  25.6805  25.7881  26.5990  26.9333  27.4231
    27.8366  28.1270  28.1281  28.8478  29.9340  30.2677  30.7886  30.7963
    31.2565  31.5633

          k = 0.2000 0.1155 0.3616 (  5067 PWs)   bands (ev):

   -76.5190 -76.5175 -76.5152 -76.5107 -76.5016 -76.4897 -38.5341 -38.5265
   -38.4977 -38.4959 -38.4811 -38.4809 -38.4791 -38.4438 -38.4397 -38.4335
   -38.4256 -38.4251 -38.4144 -38.4131 -38.4022 -38.3986 -38.3956 -38.3804
   -32.1760 -32.1752  -7.4837  -7.4798  -7.4100  -7.4086  -7.4039  -7.3998
     7.6047   7.6476   7.6894   7.7545   7.8168   7.8548   7.8665   7.9488
     8.0439   8.0811   8.1208   8.1580   8.1678   8.3162   8.5875   8.6266
     8.6453   8.6579   8.6754   8.7770   8.7838   8.7983   8.8380   8.9441
     8.9747   9.0281   9.2101   9.2153   9.2258   9.3427  12.4448  15.5532
    16.0544  17.0478  17.4856  18.6796  19.5593  19.8704  20.2029  20.3608
    20.9619  21.1883  22.3729  22.7043  22.7404  23.1662  23.6520  23.8209
    24.1482  24.6918  24.9285  25.5790  25.5846  27.1085  27.4326  27.5963
    27.8500  28.8361  28.9932  29.4235  30.1640  30.4156  30.6208  31.0694
    31.4064  31.8504

          k = 0.2000 0.1155 0.5424 (  5053 PWs)   bands (ev):

   -76.5255 -76.5135 -76.5117 -76.5030 -76.4894 -76.4790 -38.5331 -38.5307
   -38.5007 -38.4978 -38.4917 -38.4910 -38.4423 -38.4338 -38.4294 -38.4291
   -38.4264 -38.4248 -38.4036 -38.4000 -38.3991 -38.3955 -38.3941 -38.3844
   -32.1757 -32.1752  -7.4819  -7.4814  -7.4068  -7.4052  -7.4045  -7.4023
     7.6613   7.6998   7.7395   7.8151   7.8169   7.8435   7.8465   7.8875
     7.9758   8.0056   8.0091   8.0331   8.4183   8.4791   8.5472   8.5701
     8.6101   8.6145   8.6269   8.7155   8.7984   8.8330   8.8364   8.8624
     9.0608   9.1360   9.1746   9.1976   9.2354   9.3072  13.2619  14.3492
    16.6520  17.2710  17.5530  18.1687  19.3919  19.8158  20.2348  20.6272
    20.6573  20.7012  22.1436  22.2116  23.0629  23.1887  23.3777  23.4717
    24.5788  24.7945  24.9595  25.1096  25.8670  26.5773  28.5140  28.5838
    28.8593  29.3995  29.6751  29.8431  30.3355  30.3904  30.4751  31.0114
    31.2930  31.4674

          k = 0.2000 0.3079 0.0000 (  5075 PWs)   bands (ev):

   -76.5337 -76.5288 -76.5130 -76.5113 -76.4975 -76.4929 -38.5285 -38.5244
   -38.5083 -38.4928 -38.4867 -38.4802 -38.4688 -38.4515 -38.4451 -38.4385
   -38.4306 -38.4287 -38.4188 -38.4173 -38.4091 -38.4005 -38.4005 -38.3757
   -32.1762 -32.1753  -7.4848  -7.4773  -7.4147  -7.4124  -7.4061  -7.4001
     7.6445   7.6662   7.7172   7.8309   7.8435   7.9261   7.9770   7.9810
     8.0828   8.1727   8.1829   8.2230   8.2372   8.3624   8.5286   8.5567
     8.6324   8.6460   8.6550   8.7323   8.7397   8.8282   8.8344   8.9056
     8.9155   8.9205   8.9961   9.1704   9.2172   9.3506  12.1616  14.7530
    15.4269  17.1862  18.5786  19.2485  19.3709  20.3359  20.7764  21.0520
    21.3385  21.5594  22.2710  22.3477  22.5138  22.8056  23.4735  23.5749
    24.3333  25.2706  25.3330  25.7178  25.9953  26.0059  27.1277  27.1961
    27.2761  28.3506  28.8930  29.5027  29.6937  29.8873  30.6968  30.6972
    31.1668  31.5679

          k = 0.2000 0.3079 0.1808 (  5088 PWs)   bands (ev):

   -76.5395 -76.5287 -76.5249 -76.5107 -76.5043 -76.4994 -38.5269 -38.5218
   -38.5068 -38.4974 -38.4964 -38.4791 -38.4776 -38.4545 -38.4524 -38.4355
   -38.4348 -38.4309 -38.4285 -38.4227 -38.4079 -38.4025 -38.3972 -38.3871
   -32.1762 -32.1754  -7.4855  -7.4795  -7.4136  -7.4129  -7.4065  -7.4011
     7.6583   7.6764   7.7154   7.8472   7.8628   7.9323   7.9499   7.9804
     8.0503   8.1334   8.2056   8.2163   8.2508   8.4306   8.4528   8.5874
     8.6146   8.6340   8.6656   8.7198   8.7547   8.7921   8.8162   8.8829
     8.8955   8.9904   9.0248   9.1805   9.2550   9.2715  12.3236  14.9030
    15.5567  17.0316  18.0826  18.5849  19.9903  20.2317  20.4917  20.7475
    21.5632  21.6446  22.2444  22.3178  22.7428  22.8280  23.5853  23.9272
    24.4598  24.4897  25.0522  25.5316  26.2148  26.4683  27.0926  27.3736
    28.0014  28.3854  28.8333  29.2103  29.5446  30.3839  30.5109  30.8167
    31.2188  31.6895

          k = 0.2000 0.3079 0.3616 (  5068 PWs)   bands (ev):

   -76.5245 -76.5191 -76.5150 -76.5131 -76.4974 -76.4909 -38.5187 -38.5159
   -38.4976 -38.4942 -38.4842 -38.4800 -38.4726 -38.4459 -38.4444 -38.4361
   -38.4304 -38.4276 -38.4179 -38.4175 -38.4112 -38.3997 -38.3947 -38.3847
   -32.1759 -32.1752  -7.4833  -7.4815  -7.4106  -7.4101  -7.4060  -7.4022
     7.6801   7.6984   7.7382   7.8549   7.8786   7.9284   7.9460   7.9738
     8.0656   8.1222   8.1507   8.2186   8.2306   8.3737   8.5286   8.5539
     8.5862   8.6576   8.6815   8.7015   8.7376   8.7599   8.8172   8.9104
     8.9742   9.0068   9.0158   9.1060   9.1910   9.2958  12.8046  15.3428
    15.7057  16.2647  17.6289  18.3074  19.5054  19.8385  20.5826  20.7549
    21.4359  21.4941  22.2931  22.4560  22.9831  23.1158  23.4775  23.8508
    23.8721  24.5990  25.2084  25.5740  26.5534  26.6577  27.6699  27.9197
    28.0006  28.8646  28.9014  29.5048  29.6912  30.4952  30.7329  31.2590
    31.3416  31.7429

          k = 0.2000 0.3079 0.5424 (  5058 PWs)   bands (ev):

   -76.5220 -76.5209 -76.5036 -76.5015 -76.4947 -76.4914 -38.5258 -38.5173
   -38.4959 -38.4940 -38.4888 -38.4793 -38.4497 -38.4463 -38.4448 -38.4306
   -38.4289 -38.4277 -38.4123 -38.4078 -38.4026 -38.3981 -38.3918 -38.3879
   -32.1755 -32.1752  -7.4825  -7.4819  -7.4088  -7.4080  -7.4056  -7.4040
     7.7038   7.7258   7.7880   7.8655   7.8805   7.8828   7.9282   7.9977
     8.0255   8.0282   8.1541   8.1854   8.3608   8.4971   8.5077   8.5133
     8.5484   8.6273   8.6565   8.6706   8.7483   8.8121   8.8207   8.8357
     8.9191   8.9591   9.1036   9.1198   9.1954   9.2695  13.6001  14.6574
    15.9985  16.4828  17.2182  17.6414  19.6486  19.9820  20.2250  20.4195
    21.4707  21.6258  22.1166  22.2417  22.8307  22.9945  23.5134  23.6527
    24.1185  24.4707  25.4462  26.0284  26.5253  26.8788  27.9391  28.1312
    28.9540  29.0682  29.4734  29.8085  30.2336  30.5656  30.7129  30.7445
    31.3526  31.4806

          k = 0.2000 0.5004 0.0000 (  5072 PWs)   bands (ev):

   -76.5282 -76.5254 -76.5185 -76.5043 -76.5001 -76.4959 -38.5202 -38.5050
   -38.4986 -38.4901 -38.4845 -38.4788 -38.4718 -38.4517 -38.4430 -38.4369
   -38.4308 -38.4298 -38.4247 -38.4225 -38.4086 -38.4070 -38.3990 -38.3893
   -32.1759 -32.1755  -7.4827  -7.4789  -7.4163  -7.4125  -7.4083  -7.4028
     7.7043   7.7212   7.8379   7.8709   7.9540   8.0185   8.0400   8.0865
     8.0920   8.1416   8.2044   8.2277   8.2475   8.2796   8.5226   8.5409
     8.6117   8.6253   8.7022   8.7065   8.7164   8.8085   8.8211   8.8231
     8.8533   8.8665   8.9448   8.9959   9.1820   9.3283  12.7557  13.9447
    14.8465  17.4652  18.6927  19.2917  19.9664  20.1488  20.6905  20.7975
    20.9955  21.3741  22.3144  22.5337  22.6961  23.3143  23.6294  23.8676
    24.3606  24.7037  24.8588  25.2805  26.2451  26.3430  27.2882  27.6325
    27.8887  28.1820  28.6998  29.3871  29.4012  29.8585  30.9681  30.9837
    31.3657  31.8439

          k = 0.2000 0.5004 0.1808 (  5079 PWs)   bands (ev):

   -76.5303 -76.5271 -76.5235 -76.5125 -76.4995 -76.4961 -38.5213 -38.5101
   -38.5011 -38.4933 -38.4887 -38.4840 -38.4721 -38.4558 -38.4412 -38.4383
   -38.4360 -38.4321 -38.4265 -38.4232 -38.4078 -38.4053 -38.3965 -38.3905
   -32.1759 -32.1754  -7.4829  -7.4803  -7.4156  -7.4120  -7.4089  -7.4037
     7.7137   7.7537   7.8195   7.8927   7.9520   7.9731   8.0304   8.0606
     8.0756   8.1357   8.2258   8.2782   8.3103   8.3253   8.4764   8.5150
     8.5763   8.6190   8.6501   8.7064   8.7074   8.7540   8.7877   8.8573
     8.8946   8.9124   8.9436   9.0317   9.2201   9.2426  12.9098  14.1056
    14.9995  17.3999  17.9567  18.6605  19.8271  20.2608  20.5786  21.1107
    21.4384  21.4558  22.2976  22.4221  23.0126  23.2450  23.3972  23.8806
    24.1101  24.6777  24.8457  25.4714  26.5354  26.6996  27.0397  27.5659
    27.8332  28.3199  28.9932  29.5707  29.8249  30.3681  30.4675  30.7878
    31.2910  31.6433

          k = 0.2000 0.5004 0.3616 (  5085 PWs)   bands (ev):

   -76.5329 -76.5302 -76.5247 -76.5143 -76.5064 -76.4942 -38.5140 -38.5094
   -38.5018 -38.4950 -38.4897 -38.4866 -38.4735 -38.4635 -38.4487 -38.4407
   -38.4350 -38.4333 -38.4239 -38.4203 -38.4174 -38.4095 -38.3957 -38.3912
   -32.1758 -32.1754  -7.4842  -7.4831  -7.4137  -7.4105  -7.4094  -7.4044
     7.7311   7.7571   7.8214   7.9282   7.9529   7.9645   7.9960   8.0591
     8.0694   8.1577   8.2524   8.2963   8.3712   8.3878   8.4039   8.5122
     8.5348   8.6050   8.6207   8.6711   8.6996   8.7395   8.7751   8.8236
     8.9185   8.9576   8.9801   9.0220   9.0942   9.2631  13.3717  14.5748
    15.4207  16.4036  17.2501  18.0302  19.4113  20.2181  20.5467  21.0296
    21.7082  21.8826  22.2691  22.4391  22.7739  23.0568  23.5401  23.6837
    24.1512  24.7700  25.3023  25.8327  26.0146  26.9890  27.4079  27.8468
    28.5057  28.9146  29.3395  29.5252  30.0763  30.4955  30.6318  30.8731
    31.3349  31.6721

          k = 0.2000 0.5004 0.5424 (  5080 PWs)   bands (ev):

   -76.5314 -76.5260 -76.5132 -76.5105 -76.5079 -76.4975 -38.5139 -38.5099
   -38.4943 -38.4922 -38.4869 -38.4776 -38.4658 -38.4572 -38.4539 -38.4431
   -38.4387 -38.4306 -38.4271 -38.4182 -38.4158 -38.4053 -38.4008 -38.3929
   -32.1755 -32.1753  -7.4837  -7.4832  -7.4119  -7.4105  -7.4081  -7.4060
     7.7385   7.7452   7.8513   7.8858   7.9427   7.9592   7.9775   8.0772
     8.1362   8.1604   8.3013   8.3392   8.3896   8.3963   8.4214   8.4883
     8.5154   8.6029   8.6660   8.6827   8.6920   8.7401   8.7497   8.7642
     8.7902   8.8603   8.9921   9.0134   9.1777   9.2492  14.1283  15.1339
    15.2953  15.8788  16.6738  17.1889  19.6718  20.2131  20.4622  20.7387
    21.8882  22.0381  22.0917  22.1684  22.5805  22.8572  23.7218  23.7379
    24.0278  24.3992  26.0948  26.3420  26.8643  26.9518  27.2521  28.3966
    28.8995  29.0114  29.7072  29.7950  30.2026  30.4355  30.6237  30.7912
    30.9515  31.2018

          k = 0.2000-0.4619 0.0000 (  5078 PWs)   bands (ev):

   -76.5306 -76.5273 -76.5180 -76.5107 -76.5038 -76.4956 -38.5264 -38.5065
   -38.4994 -38.4920 -38.4888 -38.4819 -38.4688 -38.4526 -38.4436 -38.4373
   -38.4332 -38.4321 -38.4270 -38.4209 -38.4091 -38.4056 -38.4012 -38.3912
   -32.1760 -32.1754  -7.4834  -7.4791  -7.4163  -7.4126  -7.4083  -7.4024
     7.6978   7.7227   7.8020   7.8621   7.9512   8.0103   8.0333   8.0432
     8.0903   8.1535   8.2138   8.2290   8.2574   8.2785   8.5486   8.5630
     8.6043   8.6080   8.6814   8.7039   8.7174   8.8153   8.8249   8.8361
     8.8554   8.8647   8.9562   9.0366   9.1830   9.3311  12.6389  14.0942
    14.9021  17.4388  18.6652  19.3012  19.8146  20.2114  20.7015  20.9139
    20.9993  21.4595  22.3047  22.5129  22.5369  23.3397  23.4679  23.8213
    24.4086  24.8314  24.9779  25.3695  26.1205  26.2279  27.3785  27.5591
    27.9358  27.9544  28.8412  29.4603  29.4625  29.8614  30.9050  30.9685
    31.3001  31.8044

          k = 0.2000-0.4619 0.1808 (  5075 PWs)   bands (ev):

   -76.5320 -76.5239 -76.5206 -76.5082 -76.4984 -76.4954 -38.5193 -38.5102
   -38.4992 -38.4942 -38.4870 -38.4818 -38.4712 -38.4548 -38.4409 -38.4381
   -38.4332 -38.4310 -38.4271 -38.4227 -38.4061 -38.4027 -38.3963 -38.3897
   -32.1759 -32.1754  -7.4834  -7.4798  -7.4152  -7.4118  -7.4084  -7.4028
     7.7079   7.7500   7.7939   7.8839   7.9510   7.9571   8.0255   8.0519
     8.0760   8.1129   8.2142   8.2819   8.3230   8.3349   8.4727   8.5343
     8.5834   8.6118   8.6537   8.7040   8.7086   8.7609   8.7856   8.8674
     8.8980   8.9075   8.9589   9.0641   9.2219   9.2460  12.7957  14.2535
    15.0545  17.3356  18.0129  18.6342  19.8706  20.1921  20.6134  21.0581
    21.4669  21.5281  22.2552  22.4280  22.9148  23.1286  23.4264  23.9464
    24.1395  24.6936  24.9182  25.4321  26.4927  26.5997  27.0340  27.7338
    28.0067  28.0947  28.8161  29.7479  29.9036  30.1104  30.4772  30.8885
    31.3697  31.4802

          k = 0.2000-0.4619 0.3616 (  5078 PWs)   bands (ev):

   -76.5309 -76.5298 -76.5223 -76.5107 -76.5013 -76.4909 -38.5147 -38.5113
   -38.5007 -38.4932 -38.4891 -38.4855 -38.4732 -38.4609 -38.4457 -38.4381
   -38.4340 -38.4295 -38.4218 -38.4177 -38.4141 -38.4064 -38.3945 -38.3890
   -32.1758 -32.1753  -7.4840  -7.4824  -7.4132  -7.4104  -7.4082  -7.4041
     7.7266   7.7487   7.8072   7.9209   7.9418   7.9525   7.9980   8.0619
     8.0650   8.1251   8.2288   8.2904   8.3638   8.4002   8.4192   8.5092
     8.5352   8.6206   8.6412   8.6743   8.6866   8.7579   8.7713   8.8429
     8.9135   8.9697   8.9949   9.0267   9.1093   9.2653  13.2630  14.7161
    15.4660  16.3338  17.3427  18.0569  19.4419  20.0923  20.5869  21.0143
    21.7020  21.8395  22.2586  22.3978  22.8623  23.0752  23.5328  23.6851
    23.9957  24.7666  25.4438  25.8241  25.8950  27.1586  27.3579  27.8670
    28.5196  28.7542  29.1604  29.5724  30.0760  30.4335  30.7646  30.9078
    31.3373  31.6950

          k = 0.2000-0.4619 0.5424 (  5069 PWs)   bands (ev):

   -76.5280 -76.5233 -76.5080 -76.5052 -76.5027 -76.4927 -38.5136 -38.5119
   -38.4934 -38.4887 -38.4859 -38.4745 -38.4638 -38.4532 -38.4516 -38.4394
   -38.4341 -38.4270 -38.4247 -38.4137 -38.4077 -38.4040 -38.3980 -38.3910
   -32.1754 -32.1752  -7.4833  -7.4827  -7.4109  -7.4097  -7.4072  -7.4056
     7.7340   7.7437   7.8412   7.8834   7.9342   7.9490   7.9740   8.0686
     8.1115   8.1247   8.3061   8.3187   8.3617   8.4164   8.4382   8.4893
     8.5170   8.6120   8.6675   8.6854   8.6911   8.7609   8.7657   8.7800
     8.8018   8.8601   9.0104   9.0338   9.1785   9.2503  14.0280  15.0446
    15.4209  15.9690  16.7578  17.2376  19.6943  20.2327  20.3442  20.6869
    21.8386  22.0266  22.0992  22.2048  22.5830  22.8588  23.7259  23.7850
    23.9196  24.3980  26.1818  26.2390  26.7565  27.0677  27.1613  28.4646
    28.8460  29.1195  29.5446  29.7237  30.1646  30.4557  30.6993  30.7811
    31.1161  31.3976

          k = 0.2000-0.2694 0.0000 (  5077 PWs)   bands (ev):

   -76.5318 -76.5296 -76.5122 -76.5101 -76.5037 -76.4953 -38.5290 -38.5283
   -38.5105 -38.4932 -38.4890 -38.4800 -38.4685 -38.4548 -38.4486 -38.4367
   -38.4304 -38.4298 -38.4189 -38.4177 -38.4082 -38.3983 -38.3981 -38.3759
   -32.1762 -32.1754  -7.4852  -7.4768  -7.4139  -7.4136  -7.4051  -7.3996
     7.6164   7.6538   7.7095   7.8004   7.8319   7.8995   7.9754   7.9822
     8.0807   8.1537   8.1828   8.1893   8.2386   8.3944   8.5240   8.5462
     8.6376   8.6466   8.6653   8.7348   8.7522   8.8261   8.8363   8.9338
     8.9371   8.9482   9.0027   9.1790   9.2421   9.3566  12.0646  14.8995
    15.6309  17.0825  18.5706  19.1391  19.3924  20.2219  20.8007  21.0751
    21.4223  21.6158  22.2720  22.2870  22.6482  22.6632  23.4129  23.6165
    24.3674  25.1104  25.3718  25.6113  26.1641  26.1763  27.0149  27.1223
    27.2198  28.2962  28.9075  29.1616  29.6644  30.1664  30.7102  30.8561
    30.9651  31.5055

          k = 0.2000-0.2694 0.1808 (  5087 PWs)   bands (ev):

   -76.5375 -76.5294 -76.5234 -76.5102 -76.5050 -76.4998 -38.5271 -38.5233
   -38.5082 -38.4995 -38.4982 -38.4823 -38.4760 -38.4555 -38.4526 -38.4364
   -38.4318 -38.4292 -38.4253 -38.4208 -38.4092 -38.4041 -38.3960 -38.3824
   -32.1763 -32.1754  -7.4856  -7.4795  -7.4132  -7.4126  -7.4062  -7.4002
     7.6310   7.6665   7.7017   7.8120   7.8627   7.9057   7.9364   7.9853
     8.0493   8.1374   8.1873   8.2060   8.2232   8.4192   8.4832   8.5918
     8.6253   8.6473   8.6686   8.7182   8.7624   8.8020   8.8309   8.8863
     8.8954   9.0268   9.0424   9.1918   9.2722   9.2809  12.2248  15.0487
    15.7489  16.9542  18.0163  18.6414  19.9820  20.2911  20.3587  20.6852
    21.5697  21.6972  22.1511  22.3471  22.6942  22.9156  23.6174  23.9025
    24.4417  24.4898  25.0901  25.5352  26.0930  26.5273  27.0381  27.4386
    27.8484  28.4181  28.6340  29.2753  29.5922  30.3202  30.4444  30.8548
    31.2967  31.7090

          k = 0.2000-0.2694 0.3616 (  5068 PWs)   bands (ev):

   -76.5229 -76.5204 -76.5164 -76.5133 -76.4984 -76.4878 -38.5224 -38.5190
   -38.4974 -38.4958 -38.4820 -38.4815 -38.4765 -38.4455 -38.4428 -38.4347
   -38.4299 -38.4270 -38.4171 -38.4163 -38.4090 -38.3979 -38.3933 -38.3854
   -32.1759 -32.1752  -7.4830  -7.4810  -7.4106  -7.4100  -7.4058  -7.4018
     7.6606   7.6880   7.7244   7.8347   7.8661   7.9070   7.9302   7.9577
     8.0696   8.1314   8.1432   8.1762   8.2133   8.3591   8.5434   8.5739
     8.6042   8.6559   8.6842   8.7188   8.7522   8.7649   8.8241   8.9146
     8.9833   9.0155   9.0468   9.1318   9.2026   9.3098  12.7092  15.4790
    15.7090  16.3953  17.6236  18.4069  19.4738  19.9049  20.4399  20.7356
    21.3204  21.3947  22.3016  22.5168  22.9090  23.1445  23.5347  23.8587
    23.9277  24.6145  25.0751  25.5484  26.3723  26.8565  27.6095  27.7996
    27.9384  28.8280  29.1573  29.4677  29.5893  30.4185  30.7551  31.3085
    31.4107  31.6439

          k = 0.2000-0.2694 0.5424 (  5058 PWs)   bands (ev):

   -76.5196 -76.5136 -76.5055 -76.5040 -76.5000 -76.4917 -38.5224 -38.5189
   -38.4973 -38.4955 -38.4917 -38.4825 -38.4466 -38.4452 -38.4391 -38.4303
   -38.4287 -38.4280 -38.4141 -38.4071 -38.4015 -38.3996 -38.3942 -38.3869
   -32.1755 -32.1752  -7.4829  -7.4819  -7.4080  -7.4078  -7.4053  -7.4034
     7.6939   7.7197   7.7752   7.8582   7.8664   7.8703   7.9071   7.9688
     8.0151   8.0203   8.1192   8.1413   8.3750   8.5003   8.5111   8.5261
     8.5677   8.6234   8.6530   8.6778   8.7602   8.8179   8.8253   8.8442
     8.9523   9.0090   9.1141   9.1412   9.2026   9.2798  13.5100  14.5749
    16.1331  16.6457  17.3261  17.7815  19.5355  20.0276  20.1014  20.4698
    21.3294  21.4464  22.1232  22.2340  22.9066  23.0575  23.4510  23.6056
    24.2213  24.5464  25.2601  25.8141  26.3769  26.9556  28.0768  28.1751
    28.9656  29.0122  29.5158  29.8353  30.2834  30.5754  30.6854  30.8080
    31.2779  31.4298

          k = 0.2000-0.0770 0.0000 (  5083 PWs)   bands (ev):

   -76.5334 -76.5258 -76.5151 -76.5101 -76.5053 -76.5033 -38.5363 -38.5296
   -38.5104 -38.5005 -38.4925 -38.4748 -38.4713 -38.4568 -38.4541 -38.4357
   -38.4301 -38.4265 -38.4249 -38.4150 -38.4075 -38.4040 -38.3954 -38.3737
   -32.1764 -32.1754  -7.4877  -7.4766  -7.4124  -7.4114  -7.4022  -7.3990
     7.5337   7.6028   7.6624   7.6662   7.8244   7.8664   7.9618   7.9797
     8.0562   8.0605   8.0929   8.1838   8.2219   8.4890   8.5109   8.5348
     8.6309   8.6658   8.7072   8.7328   8.7727   8.8324   8.8397   8.9796
     9.0167   9.0588   9.0860   9.2283   9.3000   9.3800  11.7624  15.5953
    16.3934  16.7496  18.4742  18.7777  19.3859  19.4771  20.9604  21.1560
    21.6618  22.0167  22.1763  22.2289  22.4322  22.8070  23.6283  23.9441
    24.2266  24.4135  25.3025  25.8245  26.0339  26.4535  26.6112  27.2523
    27.5292  27.9905  28.0809  28.9275  29.2210  30.3070  30.8607  31.0757
    31.1658  31.3341

          k = 0.2000-0.0770 0.1808 (  5080 PWs)   bands (ev):

   -76.5285 -76.5275 -76.5140 -76.5076 -76.5050 -76.5039 -38.5326 -38.5280
   -38.5047 -38.5024 -38.4988 -38.4801 -38.4718 -38.4540 -38.4501 -38.4342
   -38.4258 -38.4255 -38.4202 -38.4137 -38.4118 -38.4008 -38.3961 -38.3752
   -32.1764 -32.1753  -7.4865  -7.4786  -7.4117  -7.4105  -7.4022  -7.3992
     7.5521   7.6228   7.6469   7.6844   7.8262   7.8782   7.9072   7.9801
     8.0391   8.0638   8.1517   8.1594   8.1914   8.3774   8.5748   8.6146
     8.6564   8.6804   8.7018   8.7056   8.7663   8.8460   8.8616   8.9001
     8.9057   9.1169   9.1707   9.2455   9.3072   9.3212  11.9233  15.7361
    16.3541  16.7769  17.9063  18.7277  19.3881  19.9234  20.5692  20.6510
    21.6399  21.7168  22.0386  22.4971  22.7257  23.0522  23.8099  23.9692
    24.1308  24.4373  25.1020  25.6447  25.7732  26.6609  26.9648  27.3729
    27.6854  28.0068  28.2752  28.7868  29.8485  30.3115  30.7441  30.9307
    31.2592  31.4946

          k = 0.2000-0.0770 0.3616 (  5063 PWs)   bands (ev):

   -76.5194 -76.5164 -76.5157 -76.5071 -76.4974 -76.4882 -38.5320 -38.5270
   -38.4967 -38.4957 -38.4813 -38.4802 -38.4773 -38.4407 -38.4382 -38.4352
   -38.4257 -38.4218 -38.4135 -38.4131 -38.4031 -38.3981 -38.3924 -38.3778
   -32.1760 -32.1751  -7.4834  -7.4799  -7.4092  -7.4079  -7.4036  -7.3998
     7.5986   7.6413   7.6832   7.7419   7.8096   7.8507   7.8594   7.9443
     8.0306   8.0820   8.1150   8.1519   8.1724   8.3105   8.5974   8.6280
     8.6470   8.6608   8.6747   8.7811   8.7912   8.8051   8.8380   8.9459
     8.9797   9.0271   9.2166   9.2283   9.2528   9.3389  12.4111  15.5339
    16.1747  17.0198  17.6203  18.6265  19.6158  19.8594  20.1735  20.2562
    20.9525  21.1503  22.3917  22.7101  22.7523  23.1528  23.6530  23.7997
    24.2086  24.6687  24.9334  25.4395  25.6793  27.0106  27.3591  27.5921
    27.9859  28.7210  29.0383  29.3704  30.2431  30.4851  30.5959  31.0870
    31.4326  31.7694

          k = 0.2000-0.0770 0.5424 (  5055 PWs)   bands (ev):

   -76.5242 -76.5132 -76.5110 -76.5068 -76.4911 -76.4805 -38.5369 -38.5312
   -38.5006 -38.4988 -38.4937 -38.4897 -38.4427 -38.4338 -38.4299 -38.4284
   -38.4267 -38.4242 -38.4047 -38.4024 -38.3978 -38.3964 -38.3922 -38.3862
   -32.1756 -32.1753  -7.4823  -7.4812  -7.4068  -7.4052  -7.4043  -7.4021
     7.6575   7.6969   7.7354   7.8054   7.8074   7.8377   7.8406   7.8816
     7.9670   7.9908   8.0049   8.0247   8.4239   8.4753   8.5569   8.5752
     8.6055   8.6166   8.6261   8.7207   8.8041   8.8360   8.8399   8.8617
     9.0720   9.1445   9.1841   9.2205   9.2439   9.3037  13.2292  14.3198
    16.7681  17.3353  17.5960  18.1635  19.4842  19.8714  20.1496  20.4795
    20.6014  20.6733  22.1467  22.2101  23.0678  23.1755  23.3849  23.4730
    24.5921  24.8182  24.8740  25.1885  25.7717  26.4392  28.5182  28.6415
    28.9641  29.4134  29.7109  29.9035  30.3228  30.3425  30.4879  31.0186
    31.2444  31.3598

          k = 0.4000 0.2309 0.0000 (  5085 PWs)   bands (ev):

   -76.5315 -76.5298 -76.5233 -76.5153 -76.5024 -76.4994 -38.5309 -38.5070
   -38.4976 -38.4939 -38.4922 -38.4771 -38.4724 -38.4501 -38.4496 -38.4408
   -38.4340 -38.4339 -38.4328 -38.4260 -38.4183 -38.4032 -38.4017 -38.3870
   -32.1761 -32.1755  -7.4846  -7.4790  -7.4159  -7.4141  -7.4083  -7.4005
     7.6157   7.7597   7.7971   7.8352   7.8738   7.9582   7.9947   8.0872
     8.1184   8.1231   8.2182   8.2184   8.2796   8.3728   8.5185   8.5561
     8.5965   8.6385   8.6672   8.7308   8.7454   8.7870   8.7941   8.8452
     8.8680   8.8905   8.9736   8.9782   9.2974   9.3376  12.4846  13.9654
    16.0253  16.4105  19.0406  19.3255  19.7792  20.2783  20.6208  20.9962
    21.0039  21.1768  22.1933  22.3760  22.9011  22.9882  23.2149  24.5033
    24.7927  24.8834  24.9892  25.7719  26.1046  26.2834  26.3393  26.6636
    27.3958  28.2669  28.9973  30.1411  30.1730  30.4231  30.5726  30.7094
    31.3181  31.7056

          k = 0.4000 0.2309 0.1808 (  5088 PWs)   bands (ev):

   -76.5313 -76.5261 -76.5223 -76.5177 -76.5067 -76.5039 -38.5244 -38.5121
   -38.4986 -38.4945 -38.4913 -38.4799 -38.4626 -38.4563 -38.4480 -38.4423
   -38.4382 -38.4349 -38.4292 -38.4259 -38.4149 -38.4106 -38.4019 -38.3930
   -32.1760 -32.1755  -7.4841  -7.4805  -7.4148  -7.4137  -7.4087  -7.4010
     7.6311   7.7434   7.8256   7.8546   7.8681   7.9580   7.9839   8.0621
     8.0739   8.1465   8.2300   8.2729   8.2808   8.3961   8.4700   8.5568
     8.5673   8.5937   8.6961   8.7071   8.7139   8.7710   8.7931   8.8639
     8.9097   8.9446   8.9463   9.0047   9.2541   9.3258  12.6409  14.1241
    16.1371  16.5121  17.7744  19.5245  19.5531  20.0795  20.4097  21.1585
    21.2227  21.5414  22.3671  22.4415  22.8847  23.0900  23.1429  24.3916
    24.6153  24.7571  25.0297  25.4742  26.0052  26.2703  26.7577  27.0053
    28.3366  28.4968  28.6679  29.7229  29.9741  30.3671  30.7327  31.1269
    31.3110  31.4497

          k = 0.4000 0.2309 0.3616 (  5084 PWs)   bands (ev):

   -76.5317 -76.5254 -76.5242 -76.5132 -76.5099 -76.4928 -38.5263 -38.5190
   -38.5023 -38.4985 -38.4850 -38.4786 -38.4754 -38.4574 -38.4484 -38.4424
   -38.4374 -38.4341 -38.4191 -38.4153 -38.4090 -38.3998 -38.3993 -38.3962
   -32.1758 -32.1754  -7.4847  -7.4815  -7.4125  -7.4114  -7.4099  -7.4018
     7.6672   7.7281   7.7837   7.8930   7.9198   7.9758   7.9835   8.0351
     8.0764   8.1722   8.2218   8.2639   8.2792   8.3866   8.4310   8.5361
     8.5841   8.6199   8.6583   8.6607   8.7020   8.7555   8.8251   8.9007
     8.9242   8.9481   8.9675   9.0376   9.0825   9.3541  13.1152  14.5908
    16.0326  16.6444  16.8159  18.7320  18.7902  19.9985  20.4423  21.1289
    21.5144  21.7887  22.2089  22.6855  22.8408  23.2354  23.4995  23.7763
    24.3351  24.7825  25.1379  25.6075  25.9919  26.5068  27.3231  28.3130
    28.4681  28.6230  28.6366  30.0004  30.1525  30.5448  30.5588  30.9300
    31.6000  31.8450

          k = 0.4000 0.2309 0.5424 (  5068 PWs)   bands (ev):

   -76.5261 -76.5169 -76.5159 -76.5110 -76.5035 -76.4841 -38.5222 -38.5142
   -38.4985 -38.4869 -38.4830 -38.4777 -38.4637 -38.4556 -38.4483 -38.4446
   -38.4366 -38.4278 -38.4183 -38.4074 -38.4038 -38.4009 -38.3955 -38.3887
   -32.1755 -32.1752  -7.4829  -7.4820  -7.4115  -7.4106  -7.4069  -7.4036
     7.7009   7.7198   7.8025   7.8631   7.9122   7.9462   7.9679   8.0781
     8.1170   8.1669   8.2249   8.2555   8.3372   8.3854   8.4250   8.5781
     8.5802   8.5978   8.6388   8.6810   8.6963   8.7676   8.8026   8.8223
     8.8742   8.9344   8.9436   8.9615   9.2159   9.3202  13.8910  14.9194
    15.3142  16.1233  17.3174  17.9927  18.7274  19.4143  20.6432  20.9074
    21.7358  21.8987  22.0960  22.2270  23.1176  23.3200  23.4276  23.6259
    24.2377  24.9280  25.0717  25.5434  26.8562  27.1174  27.8801  28.0401
    28.4907  28.6771  29.2570  30.1590  30.5958  30.6954  30.8061  31.0729
    31.1361  31.8583

          k = 0.4000 0.4234 0.0000 (  5078 PWs)   bands (ev):

   -76.5328 -76.5257 -76.5191 -76.5089 -76.5019 -76.4990 -38.5204 -38.5064
   -38.5006 -38.4906 -38.4853 -38.4797 -38.4688 -38.4516 -38.4442 -38.4358
   -38.4324 -38.4322 -38.4306 -38.4291 -38.4104 -38.4027 -38.4026 -38.3962
   -32.1759 -32.1756  -7.4831  -7.4794  -7.4170  -7.4129  -7.4090  -7.4022
     7.6858   7.7264   7.8632   7.8759   7.9683   8.0024   8.0228   8.0986
     8.1241   8.1337   8.1921   8.2254   8.2424   8.3170   8.5049   8.5305
     8.6197   8.6384   8.6936   8.7160   8.7333   8.7860   8.8065   8.8098
     8.8539   8.8797   8.9404   8.9412   9.2151   9.3274  12.8360  13.7406
    15.0125  17.2903  18.8527  19.2891  20.0903  20.1402  20.5935  20.6536
    21.0412  21.2755  22.4293  22.5232  22.7663  23.1875  23.6977  24.0390
    24.3093  24.5522  25.0106  25.4106  26.2591  26.3062  26.9346  27.4987
    27.8970  28.2075  28.8846  29.1159  29.5403  30.2454  30.9832  31.0003
    31.4829  31.8515

          k = 0.4000 0.4234 0.1808 (  5071 PWs)   bands (ev):

   -76.5256 -76.5230 -76.5162 -76.5110 -76.4979 -76.4965 -38.5187 -38.5082
   -38.5025 -38.4904 -38.4830 -38.4752 -38.4685 -38.4515 -38.4424 -38.4356
   -38.4342 -38.4279 -38.4270 -38.4254 -38.4046 -38.4024 -38.3986 -38.3940
   -32.1758 -32.1754  -7.4820  -7.4800  -7.4154  -7.4118  -7.4087  -7.4035
     7.6968   7.7567   7.8459   7.8928   7.9300   8.0009   8.0355   8.0566
     8.0630   8.1755   8.2451   8.2661   8.2956   8.3276   8.4827   8.5055
     8.5750   8.6091   8.6622   8.7123   8.7182   8.7299   8.7865   8.8478
     8.8981   8.9186   8.9332   8.9835   9.2416   9.2497  12.9889  13.9059
    15.1644  17.2994  17.8757  18.8664  19.6934  20.3896  20.5184  21.0584
    21.3702  21.4306  22.3520  22.5334  23.0776  23.2741  23.3093  23.7892
    24.3399  24.5748  24.8004  25.7190  26.3528  26.8440  26.9210  27.1836
    27.7110  28.7052  29.0350  29.5070  29.7646  30.5325  30.6365  30.8040
    31.0982  31.8250

          k = 0.4000 0.4234 0.3616 (  5075 PWs)   bands (ev):

   -76.5267 -76.5239 -76.5182 -76.5097 -76.5014 -76.4976 -38.5123 -38.5026
   -38.4987 -38.4932 -38.4875 -38.4824 -38.4685 -38.4633 -38.4436 -38.4387
   -38.4367 -38.4299 -38.4224 -38.4169 -38.4155 -38.4067 -38.3943 -38.3918
   -32.1756 -32.1753  -7.4836  -7.4826  -7.4136  -7.4101  -7.4094  -7.4031
     7.7197   7.7570   7.8271   7.9305   7.9549   7.9633   8.0124   8.0516
     8.0756   8.2074   8.2699   8.2859   8.3622   8.3705   8.3987   8.5192
     8.5391   8.5965   8.6058   8.6770   8.7033   8.7409   8.7773   8.8060
     8.9290   8.9427   8.9618   9.0202   9.0734   9.2878  13.4462  14.3849
    15.5725  16.4492  17.0902  18.1771  19.1869  20.4006  20.4717  20.9666
    21.6961  21.9396  22.2976  22.5330  22.6854  23.1812  23.5009  23.6355
    24.3851  24.6801  25.1892  26.0011  26.0271  26.6692  27.3689  27.8697
    28.3613  29.2086  29.2781  29.7010  30.0912  30.3245  30.7664  30.9442
    31.1869  31.5789

          k = 0.4000 0.4234 0.5424 (  5077 PWs)   bands (ev):

   -76.5316 -76.5309 -76.5105 -76.5073 -76.5052 -76.4946 -38.5132 -38.5127
   -38.4967 -38.4914 -38.4855 -38.4789 -38.4649 -38.4595 -38.4529 -38.4448
   -38.4380 -38.4275 -38.4247 -38.4143 -38.4123 -38.4030 -38.4005 -38.3923
   -32.1754 -32.1753  -7.4838  -7.4826  -7.4123  -7.4113  -7.4081  -7.4048
     7.7352   7.7393   7.8476   7.8823   7.9411   7.9655   7.9839   8.0917
     8.1620   8.2069   8.2985   8.3167   8.3839   8.3855   8.4104   8.5110
     8.5213   8.6008   8.6482   8.6816   8.7074   8.7260   8.7311   8.7748
     8.7837   8.8595   8.9696   8.9863   9.1851   9.2680  14.1946  15.1126
    15.2118  15.8346  16.7052  17.3247  19.4290  20.0271  20.6221  20.7940
    21.9215  22.0466  22.0927  22.1803  22.6866  22.9407  23.7033  23.7253
    24.0855  24.4138  26.1000  26.2024  26.8615  26.9138  27.2274  28.3804
    28.5246  29.1864  29.9768  30.0429  30.2555  30.3527  30.5963  30.7628
    30.9128  30.9678

          k = 0.4000 0.6158 0.0000 (  5071 PWs)   bands (ev):

   -76.5390 -76.5280 -76.5183 -76.5010 -76.4945 -76.4893 -38.5191 -38.5029
   -38.4958 -38.4930 -38.4861 -38.4853 -38.4749 -38.4478 -38.4430 -38.4345
   -38.4307 -38.4297 -38.4280 -38.4228 -38.4045 -38.3992 -38.3961 -38.3917
   -32.1758 -32.1755  -7.4825  -7.4799  -7.4167  -7.4110  -7.4092  -7.4028
     7.7117   7.7599   7.8390   7.8999   7.9772   8.0369   8.0694   8.0794
     8.1439   8.1472   8.1917   8.1959   8.2210   8.2438   8.4875   8.5075
     8.6172   8.6306   8.6832   8.7515   8.7753   8.8026   8.8164   8.8195
     8.8432   8.8721   8.9176   9.0022   9.1070   9.3243  12.9231  13.9690
    14.4474  17.8171  18.4457  19.2766  20.0836  20.1518  20.7437  20.8152
    20.9039  21.2458  22.1618  22.5828  23.0506  23.4800  23.7815  23.9814
    24.1424  24.4591  24.6191  24.8593  26.4163  26.7848  27.4010  27.9246
    28.0479  28.3387  28.8478  28.9388  29.0409  29.7134  30.2773  31.0534
    31.9076  32.0537

          k = 0.4000 0.6158 0.1808 (  5066 PWs)   bands (ev):

   -76.5246 -76.5229 -76.5190 -76.5052 -76.4940 -76.4924 -38.5191 -38.4993
   -38.4941 -38.4901 -38.4871 -38.4805 -38.4727 -38.4495 -38.4417 -38.4343
   -38.4301 -38.4286 -38.4258 -38.4234 -38.4032 -38.3994 -38.3947 -38.3932
   -32.1756 -32.1754  -7.4814  -7.4802  -7.4157  -7.4106  -7.4090  -7.4038
     7.7536   7.7642   7.8194   7.9181   7.9868   7.9933   8.0212   8.0646
     8.0723   8.1589   8.2322   8.2635   8.2811   8.3226   8.4653   8.4879
     8.5732   8.6201   8.6349   8.7090   8.7155   8.7791   8.8025   8.8435
     8.8828   8.9037   8.9311   9.0490   9.1537   9.2378  13.0747  14.1319
    14.6061  17.7080  18.0009  18.3396  20.0046  20.2500  20.4933  21.2775
    21.4050  21.4353  22.1839  22.3417  23.1787  23.3921  23.6180  23.7501
    23.9099  24.5796  24.8601  25.1811  26.7379  26.9353  27.2892  27.4432
    27.8632  28.6301  28.8441  29.3645  29.6418  30.2193  30.5554  30.8089
    31.2502  31.7943

          k = 0.4000 0.6158 0.3616 (  5090 PWs)   bands (ev):

   -76.5363 -76.5343 -76.5241 -76.5119 -76.5104 -76.4996 -38.5136 -38.5083
   -38.5057 -38.4963 -38.4923 -38.4894 -38.4744 -38.4591 -38.4505 -38.4418
   -38.4386 -38.4327 -38.4268 -38.4236 -38.4168 -38.4123 -38.3968 -38.3932
   -32.1757 -32.1755  -7.4846  -7.4836  -7.4137  -7.4102  -7.4097  -7.4061
     7.7601   7.7715   7.8392   7.9530   7.9656   7.9730   7.9926   8.0521
     8.0637   8.2003   8.2720   8.2839   8.3361   8.4008   8.4188   8.5203
     8.5420   8.5795   8.5865   8.6617   8.6905   8.7423   8.7843   8.8039
     8.9237   8.9449   8.9557   9.0183   9.1176   9.2084  13.5281  14.6014
    15.0560  16.5174  17.3181  17.7180  19.7944  20.1883  20.4400  21.1814
    21.7429  21.8083  22.2809  22.4628  22.6536  22.8667  23.5904  23.7194
    24.4251  24.8364  25.1418  25.4040  26.4618  26.9530  27.3716  28.1954
    28.5847  28.9119  29.1119  29.7689  30.1665  30.2452  30.6454  30.8519
    31.3029  31.4595

          k = 0.4000 0.6158 0.5424 (  5076 PWs)   bands (ev):

   -76.5336 -76.5247 -76.5096 -76.5079 -76.5051 -76.4963 -38.5155 -38.5055
   -38.4938 -38.4910 -38.4837 -38.4755 -38.4604 -38.4564 -38.4555 -38.4420
   -38.4385 -38.4282 -38.4233 -38.4226 -38.4148 -38.4109 -38.3977 -38.3919
   -32.1754 -32.1752  -7.4831  -7.4829  -7.4113  -7.4101  -7.4084  -7.4078
     7.7524   7.7551   7.8813   7.8954   7.9538   7.9700   7.9828   8.0704
     8.1587   8.1939   8.2990   8.3349   8.3766   8.4435   8.4475   8.4723
     8.4989   8.5835   8.6492   8.6793   8.7042   8.7171   8.7237   8.7468
     8.7659   8.8671   8.9896   9.0024   9.1731   9.2127  14.2722  15.2623
    15.3186  15.6518  16.5612  16.8635  20.0686  20.3671  20.4937  20.7304
    21.9442  21.9756  22.0251  22.0413  22.4881  22.7876  23.6623  23.7010
    24.2397  24.4065  25.8143  26.5991  26.9144  27.1408  27.5431  28.5782
    28.8509  28.9666  29.5357  29.6708  30.1930  30.3188  30.6992  30.7756
    30.9102  31.1995

          k = 0.4000-0.3464 0.0000 (  5079 PWs)   bands (ev):

   -76.5337 -76.5257 -76.5224 -76.5095 -76.4999 -76.4978 -38.5186 -38.5141
   -38.5033 -38.4934 -38.4865 -38.4746 -38.4635 -38.4531 -38.4457 -38.4392
   -38.4348 -38.4329 -38.4306 -38.4275 -38.4109 -38.4019 -38.4010 -38.3924
   -32.1760 -32.1755  -7.4835  -7.4792  -7.4162  -7.4132  -7.4088  -7.4019
     7.6462   7.7436   7.8284   7.8634   7.9236   8.0118   8.0382   8.0662
     8.1037   8.1247   8.1986   8.2374   8.2679   8.3565   8.5304   8.5695
     8.6050   8.6222   8.6906   8.6914   8.7154   8.7784   8.7942   8.8207
     8.8704   8.8785   8.9419   8.9587   9.2672   9.3312  12.7070  13.7479
    15.4610  16.8857  19.0431  19.3035  20.0092  20.1462  20.6170  20.6636
    21.1265  21.1573  22.4571  22.4802  22.6959  23.0513  23.4794  24.1981
    24.6171  24.7231  25.3236  25.6946  25.8218  26.1877  26.5602  27.1017
    27.7508  28.2114  28.7949  29.6027  29.9855  30.4171  30.9057  31.0817
    31.4835  31.6063

          k = 0.4000-0.3464 0.1808 (  5074 PWs)   bands (ev):

   -76.5243 -76.5225 -76.5179 -76.5100 -76.5025 -76.4986 -38.5207 -38.5076
   -38.5014 -38.4906 -38.4825 -38.4773 -38.4649 -38.4574 -38.4408 -38.4371
   -38.4354 -38.4331 -38.4282 -38.4208 -38.4072 -38.4035 -38.4002 -38.3922
   -32.1758 -32.1754  -7.4829  -7.4796  -7.4152  -7.4128  -7.4092  -7.4014
     7.6599   7.7556   7.8467   7.8662   7.8981   7.9921   8.0305   8.0555
     8.0716   8.1564   8.2362   8.2713   8.3077   8.3564   8.4843   8.5338
     8.5812   8.6050   8.6493   8.7053   8.7128   8.7477   8.7818   8.8499
     8.9117   8.9151   8.9366   8.9810   9.2461   9.2980  12.8616  13.9121
    15.6035  16.9410  17.8348  19.2170  19.5667  20.3819  20.4134  20.9823
    21.3503  21.4698  22.3726  22.6808  22.9739  23.0444  23.2008  24.1004
    24.4117  24.8280  24.8994  25.6639  26.1255  26.5135  26.7755  27.1076
    27.9106  28.5337  28.9873  29.8107  29.8594  30.3406  30.6727  30.9960
    31.4570  31.5793

          k = 0.4000-0.3464 0.3616 (  5081 PWs)   bands (ev):

   -76.5318 -76.5288 -76.5187 -76.5108 -76.5046 -76.4958 -38.5178 -38.5118
   -38.4993 -38.4943 -38.4883 -38.4813 -38.4749 -38.4638 -38.4459 -38.4430
   -38.4385 -38.4324 -38.4188 -38.4175 -38.4135 -38.3998 -38.3953 -38.3944
   -32.1757 -32.1754  -7.4841  -7.4822  -7.4139  -7.4107  -7.4101  -7.4019
     7.6912   7.7431   7.8071   7.9160   7.9447   7.9666   8.0049   8.0563
     8.0770   8.2001   8.2552   8.2855   8.3380   8.3618   8.4112   8.5310
     8.5449   8.6130   8.6273   8.6646   8.6929   8.7641   8.7946   8.8256
     8.9242   8.9422   8.9603   9.0253   9.0710   9.3297  13.3249  14.3881
    15.9318  16.3871  16.9920  18.5088  18.8607  20.2219  20.4838  20.9955
    21.6433  21.9449  22.2506  22.6097  22.7631  23.4363  23.4615  23.5520
    24.2494  24.9452  25.2583  25.4772  26.2234  26.5095  27.3667  27.8638
    28.3516  28.9091  29.0801  30.0034  30.2167  30.3965  30.6911  31.0390
    31.2971  31.4740

          k = 0.4000-0.3464 0.5424 (  5079 PWs)   bands (ev):

   -76.5349 -76.5245 -76.5145 -76.5092 -76.5072 -76.4948 -38.5189 -38.5155
   -38.4945 -38.4875 -38.4866 -38.4802 -38.4700 -38.4596 -38.4521 -38.4463
   -38.4414 -38.4291 -38.4205 -38.4153 -38.4104 -38.4050 -38.3979 -38.3906
   -32.1754 -32.1754  -7.4835  -7.4822  -7.4127  -7.4112  -7.4080  -7.4047
     7.7173   7.7281   7.8235   7.8717   7.9276   7.9601   7.9854   8.0976
     8.1531   8.1971   8.2923   8.3196   8.3378   8.3647   8.3943   8.5443
     8.5531   8.6032   8.6552   8.6800   8.6858   8.7390   8.7692   8.7962
     8.8168   8.8660   8.9570   8.9688   9.2032   9.3008  14.0821  15.0849
    15.1364  15.9235  17.0062  17.6782  19.0127  19.6758  20.6550  20.8597
    21.8704  22.0302  22.0886  22.2354  22.9063  23.1623  23.5865  23.7651
    24.0256  24.5956  25.6396  26.0926  26.6370  27.0589  27.3647  28.1813
    28.4874  29.0801  29.6312  30.2102  30.3480  30.4743  30.8385  30.9451
    30.9841  31.2991

          k = 0.4000-0.1540 0.0000 (  5078 PWs)   bands (ev):

   -76.5337 -76.5249 -76.5169 -76.5126 -76.4990 -76.4983 -38.5229 -38.5178
   -38.4993 -38.4910 -38.4889 -38.4800 -38.4714 -38.4491 -38.4474 -38.4392
   -38.4339 -38.4289 -38.4261 -38.4236 -38.4122 -38.4009 -38.3995 -38.3872
   -32.1761 -32.1754  -7.4839  -7.4780  -7.4152  -7.4137  -7.4077  -7.4005
     7.6180   7.7422   7.7890   7.8125   7.8772   7.9179   7.9880   8.0735
     8.1060   8.1434   8.1996   8.2341   8.2681   8.3536   8.5179   8.5718
     8.5827   8.6493   8.6631   8.7262   8.7452   8.8041   8.8432   8.8582
     8.8624   8.8990   8.9849   9.0215   9.2828   9.3414  12.3698  14.1944
    15.7723  16.7238  18.8978  19.3394  19.5850  20.3406  20.6618  21.0521
    21.1414  21.2845  22.0787  22.3677  22.8469  23.0857  23.1089  24.1236
    24.7805  24.9435  25.1050  25.7120  26.1053  26.1693  26.6862  26.8978
    27.3146  28.1149  29.3164  29.8104  30.0872  30.2642  30.3989  30.6793
    31.4993  31.6384

          k = 0.4000-0.1540 0.1808 (  5082 PWs)   bands (ev):

   -76.5296 -76.5257 -76.5184 -76.5147 -76.5056 -76.5001 -38.5226 -38.5128
   -38.5011 -38.4954 -38.4904 -38.4796 -38.4682 -38.4505 -38.4480 -38.4383
   -38.4347 -38.4291 -38.4256 -38.4236 -38.4129 -38.4086 -38.4026 -38.3895
   -32.1761 -32.1754  -7.4842  -7.4799  -7.4144  -7.4130  -7.4079  -7.4008
     7.6334   7.7317   7.7892   7.8566   7.8812   7.9155   7.9728   8.0562
     8.0872   8.1123   8.2273   8.2509   8.2781   8.4112   8.4564   8.5612
     8.5813   8.6045   8.6864   8.7131   8.7409   8.7687   8.7998   8.8787
     8.9005   8.9527   8.9875   9.0404   9.2590   9.3120  12.5272  14.3517
    15.8965  16.7758  17.7900  19.2296  19.6869  20.2132  20.3901  21.0731
    21.3617  21.5781  22.1985  22.4466  22.8119  23.0558  23.2742  24.2337
    24.4590  24.7995  25.0477  25.4647  26.1556  26.3767  26.6721  27.1898
    28.1749  28.4998  28.8636  29.5584  29.8119  30.2647  30.7535  30.9956
    31.2778  31.5330

          k = 0.4000-0.1540 0.3616 (  5080 PWs)   bands (ev):

   -76.5260 -76.5234 -76.5180 -76.5144 -76.5066 -76.4989 -38.5205 -38.5184
   -38.4995 -38.4933 -38.4873 -38.4785 -38.4734 -38.4527 -38.4475 -38.4454
   -38.4329 -38.4298 -38.4204 -38.4194 -38.4110 -38.4042 -38.3976 -38.3933
   -32.1758 -32.1753  -7.4841  -7.4817  -7.4120  -7.4113  -7.4085  -7.4021
     7.6688   7.7224   7.7743   7.8842   7.9047   7.9441   7.9919   8.0109
     8.0866   8.1307   8.1974   8.2515   8.2636   8.3889   8.4591   8.5490
     8.5735   8.6378   8.6731   8.6829   8.6953   8.7574   8.8221   8.9033
     8.9471   8.9555   9.0193   9.0449   9.0950   9.3415  13.0037  14.8080
    15.9227  16.4858  17.0919  18.6548  18.9253  20.1455  20.3204  21.1323
    21.4651  21.6673  22.2211  22.5997  22.8984  23.1987  23.5751  23.6921
    24.1012  24.9812  24.9980  25.5683  26.2592  26.5461  27.2964  28.2912
    28.3581  28.5943  28.9852  29.5700  29.9828  30.4928  30.6552  31.1346
    31.5007  31.8043

          k = 0.4000-0.1540 0.5424 (  5062 PWs)   bands (ev):

   -76.5246 -76.5184 -76.5094 -76.5041 -76.5022 -76.4840 -38.5203 -38.5190
   -38.4957 -38.4889 -38.4834 -38.4742 -38.4551 -38.4504 -38.4466 -38.4373
   -38.4341 -38.4300 -38.4148 -38.4078 -38.4037 -38.4000 -38.3967 -38.3887
   -32.1755 -32.1751  -7.4828  -7.4818  -7.4098  -7.4093  -7.4072  -7.4037
     7.7017   7.7225   7.7993   7.8637   7.9023   7.9308   7.9545   8.0542
     8.0780   8.1165   8.2020   8.2355   8.3424   8.4193   8.4526   8.5546
     8.5817   8.6010   8.6519   8.6734   8.7157   8.7856   8.8027   8.8372
     8.8845   8.9275   8.9948   9.0180   9.2083   9.3091  13.7875  14.8264
    15.5175  16.2760  17.2250  17.8811  18.9611  19.6115  20.5317  20.8550
    21.6422  21.8133  22.1031  22.2253  22.9807  23.2200  23.4582  23.6668
    24.1461  24.7581  25.2088  25.6899  26.8070  27.1424  27.8578  28.2317
    28.4664  28.8042  29.1500  30.1792  30.3630  30.7120  30.8992  30.9914
    31.2555  31.5388

          k = 0.4000 0.0385 0.0000 (  5079 PWs)   bands (ev):

   -76.5358 -76.5309 -76.5182 -76.5103 -76.5032 -76.4888 -38.5232 -38.5169
   -38.5070 -38.4926 -38.4885 -38.4831 -38.4716 -38.4481 -38.4458 -38.4402
   -38.4329 -38.4320 -38.4247 -38.4206 -38.4091 -38.4049 -38.4020 -38.3792
   -32.1762 -32.1753  -7.4839  -7.4785  -7.4154  -7.4123  -7.4075  -7.4008
     7.6542   7.7047   7.7235   7.8328   7.8901   7.9352   7.9871   7.9947
     8.0864   8.1763   8.1923   8.2389   8.2508   8.3295   8.5374   8.5686
     8.6111   8.6368   8.6650   8.7134   8.7384   8.8252   8.8393   8.8743
     8.8858   8.9059   8.9879   9.1303   9.2160   9.3446  12.2760  14.5533
    15.2998  17.2276  18.6239  19.3499  19.3878  20.3711  20.7444  21.0440
    21.2232  21.5562  22.1748  22.3974  22.5079  22.9699  23.4058  23.6772
    24.3664  25.1477  25.4681  25.7325  25.8562  25.9272  27.2220  27.2535
    27.3754  28.2026  29.1004  29.6008  29.7076  29.8747  30.4946  30.7159
    31.4180  31.6318

          k = 0.4000 0.0385 0.1808 (  5082 PWs)   bands (ev):

   -76.5351 -76.5269 -76.5217 -76.5097 -76.5035 -76.4967 -38.5232 -38.5192
   -38.5033 -38.4955 -38.4922 -38.4782 -38.4729 -38.4529 -38.4503 -38.4359
   -38.4338 -38.4309 -38.4276 -38.4233 -38.4070 -38.4020 -38.3968 -38.3895
   -32.1760 -32.1754  -7.4847  -7.4794  -7.4139  -7.4127  -7.4070  -7.4015
     7.6680   7.7071   7.7320   7.8639   7.8823   7.9390   7.9688   8.0005
     8.0530   8.1249   8.2079   8.2389   8.2830   8.4168   8.4454   8.5819
     8.5992   8.6191   8.6665   8.7187   8.7439   8.7809   8.8021   8.8804
     8.8965   8.9576   9.0069   9.1452   9.2523   9.2634  12.4381  14.7053
    15.4391  17.0906  18.0511  18.6457  19.9454  20.1933  20.5615  20.8508
    21.5649  21.5971  22.2169  22.3807  22.7713  22.8448  23.5165  23.9609
    24.4433  24.5572  25.0070  25.5247  26.2916  26.4618  26.9976  27.4967
    27.9523  28.4958  28.8874  29.1471  29.7002  30.3404  30.6176  30.8110
    31.1687  31.9006

          k = 0.4000 0.0385 0.3616 (  5063 PWs)   bands (ev):

   -76.5202 -76.5191 -76.5134 -76.5115 -76.4953 -76.4887 -38.5169 -38.5129
   -38.4948 -38.4929 -38.4820 -38.4783 -38.4708 -38.4478 -38.4448 -38.4351
   -38.4288 -38.4278 -38.4178 -38.4137 -38.4112 -38.3999 -38.3929 -38.3842
   -32.1758 -32.1751  -7.4831  -7.4814  -7.4109  -7.4098  -7.4062  -7.4025
     7.6927   7.7129   7.7567   7.8775   7.8909   7.9326   7.9737   8.0016
     8.0638   8.1118   8.1659   8.2476   8.2614   8.3888   8.5005   8.5415
     8.5668   8.6570   8.6773   8.6844   8.7173   8.7589   8.8095   8.9076
     8.9407   8.9912   9.0154   9.0794   9.1626   9.2922  12.9166  15.1515
    15.7040  16.2248  17.5441  18.2710  19.4282  19.9112  20.5708  20.8762
    21.5395  21.5928  22.2782  22.4206  23.0142  23.1197  23.4505  23.7656
    23.8893  24.6516  25.3309  25.5875  26.3794  26.8024  27.5226  28.0784
    28.1902  28.6765  28.9274  29.5420  29.7809  30.5502  30.7069  31.2247
    31.2822  31.8498

          k = 0.4000 0.0385 0.5424 (  5064 PWs)   bands (ev):

   -76.5218 -76.5167 -76.5094 -76.5037 -76.5022 -76.4945 -38.5220 -38.5143
   -38.4978 -38.4942 -38.4845 -38.4755 -38.4559 -38.4481 -38.4464 -38.4350
   -38.4316 -38.4314 -38.4166 -38.4126 -38.4055 -38.3999 -38.3954 -38.3888
   -32.1754 -32.1753  -7.4833  -7.4825  -7.4094  -7.4081  -7.4064  -7.4046
     7.7119   7.7307   7.8013   7.8700   7.8951   7.9023   7.9475   8.0282
     8.0393   8.0475   8.1934   8.2316   8.3462   8.4748   8.4915   8.5183
     8.5359   8.6285   8.6523   8.6731   8.7343   8.8006   8.8120   8.8302
     8.8889   8.9112   9.0725   9.0983   9.1887   9.2679  13.7042  14.7517
    15.8221  16.3423  17.0963  17.5506  19.5985  20.1007  20.1740  20.5360
    21.5928  21.7818  22.1092  22.2434  22.7667  22.9627  23.5770  23.6996
    24.0246  24.4471  25.6017  26.1728  26.6658  26.8301  27.7085  28.2667
    28.8256  29.0987  29.5105  29.7013  30.2208  30.5890  30.7254  30.7614
    31.3967  31.5211

     the Fermi energy is    24.9687 ev

!    total energy              =   -2278.80405833 Ry
     Harris-Foulkes estimate   =   -2278.80407921 Ry
     estimated scf accuracy    <       0.00002384 Ry

     The total energy is the sum of the following terms:

     one-electron contribution =    -634.25339277 Ry
     hartree contribution      =     404.23860685 Ry
     xc contribution           =    -199.92130797 Ry
     ewald contribution        =   -1848.56592051 Ry
     smearing contrib. (-TS)   =      -0.30204392 Ry

     convergence has been achieved in  11 iterations

     Forces acting on atoms (Ry/au):

     atom    1 type  1   force =    -0.06038356   -0.03486246    0.00000000
     atom    2 type  1   force =    -0.06038356    0.03486246    0.00000000
     atom    3 type  1   force =     0.06038356    0.03486246    0.00000000
     atom    4 type  1   force =     0.06038356   -0.03486246    0.00000000
     atom    5 type  1   force =     0.00000000    0.06972493    0.00000000
     atom    6 type  1   force =     0.00000000   -0.06972493    0.00000000
     atom    7 type  2   force =     0.00000000    0.00000000    0.00000000
     atom    8 type  2   force =     0.00000000    0.00000000    0.00000000

     Total force =     0.170790     Total SCF correction =     0.000000


     entering subroutine stress ...

          total   stress  (Ry/bohr**3)                   (kbar)     P= -245.91
  -0.00181893   0.00000000   0.00000000       -267.57      0.00      0.00
   0.00000000  -0.00181893   0.00000000          0.00   -267.57      0.00
   0.00000000   0.00000000  -0.00137709          0.00      0.00   -202.58


     BFGS Geometry Optimization

     number of scf cycles    =   1
     number of bfgs steps    =   0

     enthalpy new            =   -2278.8040583346 Ry

     new trust radius        =       0.3133817234 bohr
     new conv_thr            =       0.0001000000 Ry

     new unit-cell volume =   1044.56830 a.u.^3 (   154.78905 Ang^3 )

CELL_PARAMETERS (alat= 12.01680127)
   0.954526762   0.000000000   0.000000000
  -0.477263381   0.826644424   0.000000000
   0.000000000   0.000000000   0.762892514

ATOMIC_POSITIONS (crystal)
Mg       0.657158096   0.828579048   0.250000000
Mg       0.828579048   0.171420952   0.750000000
Mg       0.342841904   0.171420952   0.750000000
Mg       0.171420952   0.828579048   0.250000000
Mg       0.171420952   0.342841904   0.250000000
Mg       0.828579048   0.657158096   0.750000000
Cd       0.666667000   0.333333000   0.250000000
Cd       0.333333000   0.666667000   0.750000000



     Writing output data file Prototype-La-hP8-Mg3Cd.save
     NEW-OLD atomic charge density approx. for the potential
     NEW k-points:
        k(    1) = (   0.0000000   0.0000000   0.0000000), wk =   0.0095238
        k(    2) = (   0.0000000   0.0000000   0.1872572), wk =   0.0190476
        k(    3) = (   0.0000000   0.0000000   0.3745145), wk =   0.0190476
        k(    4) = (   0.0000000   0.0000000   0.5617717), wk =   0.0190476
        k(    5) = (   0.0000000   0.2016183   0.0000000), wk =   0.0190476
        k(    6) = (   0.0000000   0.2016183   0.1872572), wk =   0.0380952
        k(    7) = (   0.0000000   0.2016183   0.3745145), wk =   0.0380952
        k(    8) = (   0.0000000   0.2016183   0.5617717), wk =   0.0380952
        k(    9) = (   0.0000000   0.4032367   0.0000000), wk =   0.0190476
        k(   10) = (   0.0000000   0.4032367   0.1872572), wk =   0.0380952
        k(   11) = (   0.0000000   0.4032367   0.3745145), wk =   0.0380952
        k(   12) = (   0.0000000   0.4032367   0.5617717), wk =   0.0380952
        k(   13) = (   0.0000000  -0.6048550   0.0000000), wk =   0.0095238
        k(   14) = (   0.0000000  -0.6048550   0.1872572), wk =   0.0190476
        k(   15) = (   0.0000000  -0.6048550   0.3745145), wk =   0.0190476
        k(   16) = (   0.0000000  -0.6048550   0.5617717), wk =   0.0190476
        k(   17) = (   0.2095279   0.1209710   0.0000000), wk =   0.0190476
        k(   18) = (   0.2095279   0.1209710   0.1872572), wk =   0.0380952
        k(   19) = (   0.2095279   0.1209710   0.3745145), wk =   0.0380952
        k(   20) = (   0.2095279   0.1209710   0.5617717), wk =   0.0380952
        k(   21) = (   0.2095279   0.3225893   0.0000000), wk =   0.0190476
        k(   22) = (   0.2095279   0.3225893   0.1872572), wk =   0.0380952
        k(   23) = (   0.2095279   0.3225893   0.3745145), wk =   0.0380952
        k(   24) = (   0.2095279   0.3225893   0.5617717), wk =   0.0380952
        k(   25) = (   0.2095279   0.5242077   0.0000000), wk =   0.0190476
        k(   26) = (   0.2095279   0.5242077   0.1872572), wk =   0.0380952
        k(   27) = (   0.2095279   0.5242077   0.3745145), wk =   0.0380952
        k(   28) = (   0.2095279   0.5242077   0.5617717), wk =   0.0380952
        k(   29) = (   0.2095279  -0.4838840   0.0000000), wk =   0.0190476
        k(   30) = (   0.2095279  -0.4838840   0.1872572), wk =   0.0380952
        k(   31) = (   0.2095279  -0.4838840   0.3745145), wk =   0.0380952
        k(   32) = (   0.2095279  -0.4838840   0.5617717), wk =   0.0380952
        k(   33) = (   0.2095279  -0.2822657   0.0000000), wk =   0.0190476
        k(   34) = (   0.2095279  -0.2822657   0.1872572), wk =   0.0380952
        k(   35) = (   0.2095279  -0.2822657   0.3745145), wk =   0.0380952
        k(   36) = (   0.2095279  -0.2822657   0.5617717), wk =   0.0380952
        k(   37) = (   0.2095279  -0.0806473   0.0000000), wk =   0.0190476
        k(   38) = (   0.2095279  -0.0806473   0.1872572), wk =   0.0380952
        k(   39) = (   0.2095279  -0.0806473   0.3745145), wk =   0.0380952
        k(   40) = (   0.2095279  -0.0806473   0.5617717), wk =   0.0380952
        k(   41) = (   0.4190558   0.2419420   0.0000000), wk =   0.0190476
        k(   42) = (   0.4190558   0.2419420   0.1872572), wk =   0.0380952
        k(   43) = (   0.4190558   0.2419420   0.3745145), wk =   0.0380952
        k(   44) = (   0.4190558   0.2419420   0.5617717), wk =   0.0380952
        k(   45) = (   0.4190558   0.4435603   0.0000000), wk =   0.0190476
        k(   46) = (   0.4190558   0.4435603   0.1872572), wk =   0.0380952
        k(   47) = (   0.4190558   0.4435603   0.3745145), wk =   0.0380952
        k(   48) = (   0.4190558   0.4435603   0.5617717), wk =   0.0380952
        k(   49) = (   0.4190558   0.6451786   0.0000000), wk =   0.0190476
        k(   50) = (   0.4190558   0.6451786   0.1872572), wk =   0.0380952
        k(   51) = (   0.4190558   0.6451786   0.3745145), wk =   0.0380952
        k(   52) = (   0.4190558   0.6451786   0.5617717), wk =   0.0380952
        k(   53) = (   0.4190558  -0.3629130   0.0000000), wk =   0.0190476
        k(   54) = (   0.4190558  -0.3629130   0.1872572), wk =   0.0380952
        k(   55) = (   0.4190558  -0.3629130   0.3745145), wk =   0.0380952
        k(   56) = (   0.4190558  -0.3629130   0.5617717), wk =   0.0380952
        k(   57) = (   0.4190558  -0.1612947   0.0000000), wk =   0.0190476
        k(   58) = (   0.4190558  -0.1612947   0.1872572), wk =   0.0380952
        k(   59) = (   0.4190558  -0.1612947   0.3745145), wk =   0.0380952
        k(   60) = (   0.4190558  -0.1612947   0.5617717), wk =   0.0380952
        k(   61) = (   0.4190558   0.0403237   0.0000000), wk =   0.0190476
        k(   62) = (   0.4190558   0.0403237   0.1872572), wk =   0.0380952
        k(   63) = (   0.4190558   0.0403237   0.3745145), wk =   0.0380952
        k(   64) = (   0.4190558   0.0403237   0.5617717), wk =   0.0380952

     total cpu time spent up to now is     1076.0 secs

     Self-consistent Calculation

     iteration #  1     ecut=    40.00 Ry     beta=0.70
     CG style diagonalization
     c_bands:  1 eigenvalues not converged
     c_bands:  1 eigenvalues not converged
     c_bands:  1 eigenvalues not converged
     c_bands:  1 eigenvalues not converged
     c_bands:  2 eigenvalues not converged
     c_bands:  1 eigenvalues not converged
     c_bands:  5 eigenvalues not converged
     c_bands:  1 eigenvalues not converged
     c_bands:  1 eigenvalues not converged
     c_bands:  1 eigenvalues not converged
     c_bands:  4 eigenvalues not converged
     c_bands:  3 eigenvalues not converged
     c_bands:  1 eigenvalues not converged
     c_bands:  2 eigenvalues not converged
     c_bands:  1 eigenvalues not converged
     c_bands:  1 eigenvalues not converged
     c_bands:  2 eigenvalues not converged
     c_bands:  3 eigenvalues not converged
     c_bands:  1 eigenvalues not converged
     c_bands:  1 eigenvalues not converged
     c_bands:  1 eigenvalues not converged
     c_bands:  1 eigenvalues not converged
     c_bands:  3 eigenvalues not converged
     c_bands:  2 eigenvalues not converged
     c_bands:  1 eigenvalues not converged
     c_bands:  1 eigenvalues not converged
     c_bands:  1 eigenvalues not converged
     c_bands:  1 eigenvalues not converged
     c_bands:  2 eigenvalues not converged
     ethr =  1.00E-06,  avg # of iterations = 24.2

     total cpu time spent up to now is     1382.2 secs

     total energy              =   -2254.17073696 Ry
     Harris-Foulkes estimate   =   -2291.05379137 Ry
     estimated scf accuracy    <      43.75518289 Ry

     iteration #  2     ecut=    40.00 Ry     beta=0.70
     CG style diagonalization
     c_bands:  1 eigenvalues not converged
     ethr =  1.00E-02,  avg # of iterations =  6.2
