
     Program PWSCF v.5.0.2 starts on 22Mar2018 at  0:40:54 

     This program is part of the open-source Quantum ESPRESSO suite
     for quantum simulation of materials; please cite
         "P. Giannozzi et al., J. Phys.:Condens. Matter 21 395502 (2009);
          URL http://www.quantum-espresso.org", 
     in publications or presentations arising from this work. More details at
     http://www.quantum-espresso.org/quote.php

     Parallel version (MPI), running on     4 processors
     R & G space division:  proc/nbgrp/npool/nimage =       4

     Current dimensions of program PWSCF are:
     Max number of different atomic species (ntypx) = 10
     Max number of k-points (npk) =  40000
     Max angular momentum in pseudopotentials (lmaxx) =  3
     Waiting for input...
     Reading input from standard input

     Subspace diagonalization in iterative solution of the eigenvalue problem:
     a serial algorithm will be used

 
     Parallelization info
     --------------------
     sticks:   dense  smooth     PW     G-vecs:    dense   smooth      PW
     Min         207     207     61                 7381     7381    1191
     Max         208     208     62                 7386     7386    1192
     Sum         829     829    247                29529    29529    4767
 


     bravais-lattice index     =            0
     lattice parameter (alat)  =       7.0151  a.u.
     unit-cell volume          =     862.2778 (a.u.)^3
     number of atoms/cell      =           12
     number of atomic types    =            2
     number of electrons       =       188.00
     number of Kohn-Sham states=          113
     kinetic-energy cutoff     =      40.0000  Ry
     charge density cutoff     =     160.0000  Ry
     convergence threshold     =      1.0E-04
     mixing beta               =       0.7000
     number of iterations used =            8  plain     mixing
     Exchange-correlation      = SLA-PZ-NOGX-NOGC ( 1 1 0 0 0)
     EXX-fraction              =        0.00
     nstep                     =           50


     celldm(1)=   7.015105  celldm(2)=   0.000000  celldm(3)=   0.000000
     celldm(4)=   0.000000  celldm(5)=   0.000000  celldm(6)=   0.000000

     crystal axes: (cart. coord. in units of alat)
               a(1) = (   1.000000   0.000000   0.000000 )  
               a(2) = (   0.000000   1.315963   0.000000 )  
               a(3) = (   0.000000   0.000000   1.898020 )  

     reciprocal axes: (cart. coord. in units 2 pi/alat)
               b(1) = (  1.000000  0.000000  0.000000 )  
               b(2) = (  0.000000  0.759900  0.000000 )  
               b(3) = (  0.000000  0.000000  0.526865 )  


     PseudoPot. # 1 for Ce read from file:
     /home/jld5415/pp.La/Ce.UPF
     MD5 check sum: 44451aa79a44a00cf2bc029dc19922f6
     Pseudo is Norm-conserving, Zval = 12.0
     Generated in analytical, separable form
     Using radial grid of 1255 points,  6 beta functions with: 
                l(1) =   0
                l(2) =   0
                l(3) =   1
                l(4) =   1
                l(5) =   2
                l(6) =   3

     PseudoPot. # 2 for Tm read from file:
     /home/jld5415/pp.La/Tm.UPF
     MD5 check sum: 245516e0878b5372ceeb9443ded2c4e1
     Pseudo is Norm-conserving, Zval = 23.0
     Generated in analytical, separable form
     Using radial grid of 1269 points,  6 beta functions with: 
                l(1) =   0
                l(2) =   0
                l(3) =   1
                l(4) =   1
                l(5) =   2
                l(6) =   3

     atomic species   valence    mass     pseudopotential
        Co            12.00    58.93320     Ce( 1.00)
        Si            23.00    28.08550     Tm( 1.00)

      8 Sym. Ops., with inversion, found ( 6 have fractional translation)



   Cartesian axes

     site n.     atom                  positions (alat units)
         1           Co  tau(   1) = (   0.7500000   1.0875135   0.8270358  )
         2           Co  tau(   2) = (   0.2500000   0.2284499   1.0709846  )
         3           Co  tau(   3) = (   0.7500000   0.4295318   0.1219744  )
         4           Co  tau(   4) = (   0.2500000   0.8864316   1.7760460  )
         5           Co  tau(   5) = (   0.2500000   0.7067855   0.5358966  )
         6           Co  tau(   6) = (   0.7500000   0.6091779   1.3621238  )
         7           Co  tau(   7) = (   0.2500000   0.0488038   0.4131136  )
         8           Co  tau(   8) = (   0.7500000   1.2671596   1.4849068  )
         9           Si  tau(   9) = (   0.2500000   0.2669484   1.6960710  )
        10           Si  tau(  10) = (   0.7500000   1.0490149   0.2019494  )
        11           Si  tau(  11) = (   0.2500000   0.9249301   1.1509596  )
        12           Si  tau(  12) = (   0.7500000   0.3910333   0.7470608  )

     number of k points=    12  gaussian smearing, width (Ry)=  0.1000
                       cart. coord. in units 2pi/alat
        k(    1) = (   0.0000000   0.0000000   0.0000000), wk =   0.0833333
        k(    2) = (   0.0000000   0.0000000   0.1317162), wk =   0.1666667
        k(    3) = (   0.0000000   0.0000000  -0.2634324), wk =   0.0833333
        k(    4) = (   0.0000000   0.2532999   0.0000000), wk =   0.1666667
        k(    5) = (   0.0000000   0.2532999   0.1317162), wk =   0.3333333
        k(    6) = (   0.0000000   0.2532999  -0.2634324), wk =   0.1666667
        k(    7) = (  -0.5000000   0.0000000   0.0000000), wk =   0.0833333
        k(    8) = (  -0.5000000   0.0000000   0.1317162), wk =   0.1666667
        k(    9) = (  -0.5000000   0.0000000  -0.2634324), wk =   0.0833333
        k(   10) = (  -0.5000000   0.2532999   0.0000000), wk =   0.1666667
        k(   11) = (  -0.5000000   0.2532999   0.1317162), wk =   0.3333333
        k(   12) = (  -0.5000000   0.2532999  -0.2634324), wk =   0.1666667

     Dense  grid:    29529 G-vectors     FFT dimensions: (  30,  40,  54)

     Largest allocated arrays     est. size (Mb)     dimensions
        Kohn-Sham Wavefunctions         1.59 Mb     (    922,  113)
        NL pseudopotentials             3.38 Mb     (    922,  240)
        Each V/rho on FFT grid          0.26 Mb     (  16800)
        Each G-vector array             0.06 Mb     (   7386)
        G-vector shells                 0.06 Mb     (   7386)
     Largest temporary arrays     est. size (Mb)     dimensions
        Each subspace H/S matrix        0.19 Mb     ( 113, 113)
        Each <psi_i|beta_j> matrix      0.41 Mb     (    240,  113)
        Arrays for rho mixing           2.05 Mb     (  16800,   8)

     Initial potential from superposition of free atoms

     Starting from uniform charge
     Starting wfc are    0 randomized atomic wfcs

     total cpu time spent up to now is        2.2 secs

     Self-consistent Calculation

     iteration #  1     ecut=    40.00 Ry     beta=0.70
     CG style diagonalization
     c_bands:  1 eigenvalues not converged
     c_bands:  3 eigenvalues not converged
     c_bands:  1 eigenvalues not converged
     c_bands:  1 eigenvalues not converged
     c_bands:  1 eigenvalues not converged
     c_bands:  1 eigenvalues not converged
     ethr =  1.00E-02,  avg # of iterations = 13.2

     total cpu time spent up to now is       29.0 secs

     total energy              =    -994.02920030 Ry
     Harris-Foulkes estimate   =   -2741.01522506 Ry
     estimated scf accuracy    <    2078.24091913 Ry

     iteration #  2     ecut=    40.00 Ry     beta=0.70
     CG style diagonalization
     ethr =  1.00E-02,  avg # of iterations = 18.1

     total cpu time spent up to now is       65.0 secs

     total energy              =   -1726.17315961 Ry
     Harris-Foulkes estimate   =   -2871.17386836 Ry
     estimated scf accuracy    <    2103.84043410 Ry

     iteration #  3     ecut=    40.00 Ry     beta=0.70
     CG style diagonalization
     c_bands:  1 eigenvalues not converged
     c_bands:  1 eigenvalues not converged
     c_bands:  1 eigenvalues not converged
     c_bands:  1 eigenvalues not converged
     c_bands:  2 eigenvalues not converged
     ethr =  1.00E-02,  avg # of iterations = 13.5

     total cpu time spent up to now is       90.9 secs

     total energy              =   -2060.56597906 Ry
     Harris-Foulkes estimate   =   -2100.94685331 Ry
     estimated scf accuracy    <      81.67217680 Ry

     iteration #  4     ecut=    40.00 Ry     beta=0.70
     CG style diagonalization
     ethr =  1.00E-02,  avg # of iterations =  4.5

     total cpu time spent up to now is       99.5 secs

     total energy              =   -2070.22981446 Ry
     Harris-Foulkes estimate   =   -2075.09911255 Ry
     estimated scf accuracy    <      10.98923653 Ry

     iteration #  5     ecut=    40.00 Ry     beta=0.70
     CG style diagonalization
     ethr =  5.85E-03,  avg # of iterations =  3.5

     total cpu time spent up to now is      106.3 secs

     total energy              =   -2070.80547101 Ry
     Harris-Foulkes estimate   =   -2072.20499425 Ry
     estimated scf accuracy    <       2.80802236 Ry

     iteration #  6     ecut=    40.00 Ry     beta=0.70
     CG style diagonalization
     ethr =  1.49E-03,  avg # of iterations =  4.1

     total cpu time spent up to now is      114.2 secs

     total energy              =   -2071.27777989 Ry
     Harris-Foulkes estimate   =   -2071.45965600 Ry
     estimated scf accuracy    <       0.29571064 Ry

     iteration #  7     ecut=    40.00 Ry     beta=0.70
     CG style diagonalization
     c_bands:  2 eigenvalues not converged
     c_bands:  3 eigenvalues not converged
     c_bands:  2 eigenvalues not converged
     c_bands:  1 eigenvalues not converged
     ethr =  1.57E-04,  avg # of iterations =  5.0

     total cpu time spent up to now is      124.0 secs

     total energy              =   -2071.42401668 Ry
     Harris-Foulkes estimate   =   -2071.44489433 Ry
     estimated scf accuracy    <       0.04902743 Ry

     iteration #  8     ecut=    40.00 Ry     beta=0.70
     CG style diagonalization
     c_bands:  2 eigenvalues not converged
     c_bands:  1 eigenvalues not converged
     c_bands:  1 eigenvalues not converged
     c_bands:  1 eigenvalues not converged
     ethr =  2.61E-05,  avg # of iterations =  4.2

     total cpu time spent up to now is      134.2 secs

     total energy              =   -2071.42826629 Ry
     Harris-Foulkes estimate   =   -2071.43540509 Ry
     estimated scf accuracy    <       0.01116285 Ry

     iteration #  9     ecut=    40.00 Ry     beta=0.70
     CG style diagonalization
     c_bands:  2 eigenvalues not converged
     c_bands:  1 eigenvalues not converged
     c_bands:  1 eigenvalues not converged
     ethr =  5.94E-06,  avg # of iterations =  4.4

     total cpu time spent up to now is      145.1 secs

     total energy              =   -2071.43202263 Ry
     Harris-Foulkes estimate   =   -2071.43216756 Ry
     estimated scf accuracy    <       0.00035347 Ry

     iteration # 10     ecut=    40.00 Ry     beta=0.70
     CG style diagonalization
     ethr =  1.88E-07,  avg # of iterations =  4.7

     total cpu time spent up to now is      155.7 secs

     total energy              =   -2071.43215155 Ry
     Harris-Foulkes estimate   =   -2071.43222540 Ry
     estimated scf accuracy    <       0.00012299 Ry

     iteration # 11     ecut=    40.00 Ry     beta=0.70
     CG style diagonalization
     ethr =  6.54E-08,  avg # of iterations =  3.7

     total cpu time spent up to now is      162.7 secs

     End of self-consistent calculation

          k = 0.0000 0.0000 0.0000 (  3675 PWs)   bands (ev):

   -65.2464 -65.2277 -65.2268 -65.2056 -24.4158 -24.4135 -24.3868 -24.3574
   -24.3360 -24.3337 -24.3335 -24.3250 -24.1681 -24.1476 -24.1147 -24.0809
     4.6414   6.4881   6.8853   7.9177   8.4430   9.0124   9.1158   9.5910
    18.3378  18.4449  19.0784  19.5722  20.2402  20.4410  20.5829  20.7628
    21.0772  21.1342  21.1417  21.5714  21.9144  22.2559  22.8751  22.9102
    23.2313  23.3395  23.3615  23.7225  23.8298  23.9526  24.4007  24.9064
    25.3365  26.0266  26.0404  26.2821  26.6170  26.9237  26.9239  27.0114
    27.1416  27.7947  28.4047  28.9275  29.1329  29.1441  29.2672  29.5407
    30.0137  31.0067  31.2436  31.5897  35.1641  37.2024  37.3049  38.5611
    39.3310  40.4034  40.5466  41.8888  42.0722  42.3038  42.7450  43.0410
    43.2540  43.3272  43.6253  43.6759  44.5248  44.5750  45.2045  45.4506
    47.1022  47.7746  48.2752  48.4212  48.4490  48.8993  49.4757  49.9978
    50.1863  50.3281  50.8005  51.0217  51.3684  51.3739  51.7020  52.0426
    52.1592  52.6929  52.6932  53.0536  53.2751  53.7719  54.0113  54.4497
    55.3771

          k = 0.0000 0.0000 0.1317 (  3675 PWs)   bands (ev):

   -65.2527 -65.2260 -65.2235 -65.2066 -24.4076 -24.4006 -24.3818 -24.3725
   -24.3429 -24.3332 -24.3296 -24.3240 -24.1660 -24.1614 -24.1044 -24.0900
     4.7938   5.8741   7.5056   7.9507   8.4572   9.0226   9.0936   9.3205
    18.3913  18.7604  19.1781  19.7353  19.8020  20.0357  20.6150  20.6407
    21.2220  21.3685  21.4132  21.9859  22.1195  22.1266  22.8757  23.0932
    23.2130  23.3369  23.6821  23.6881  23.8008  23.9837  24.2915  24.7962
    25.0760  25.0787  25.5438  25.6923  25.9450  26.0299  26.9910  27.8213
    28.0348  28.6422  28.6705  28.7732  29.1132  29.1364  29.2682  29.4323
    30.2118  31.0020  31.3016  31.3351  35.4383  36.9348  38.3908  38.9831
    39.5860  40.4729  40.5061  41.8587  42.2163  42.3442  42.4853  42.6410
    43.0114  43.0689  43.1948  44.0002  44.6964  45.5209  45.7451  45.8780
    46.0234  46.5702  46.9939  47.4663  48.7357  48.8231  48.8412  49.1564
    49.6826  49.8401  50.9407  51.0076  51.3314  51.7180  52.0981  52.2328
    52.5406  52.5924  53.0409  53.8709  54.0805  54.0893  54.2388  54.7993
    54.9409

          k = 0.0000 0.0000-0.2634 (  3690 PWs)   bands (ev):

   -65.2497 -65.2497 -65.2227 -65.2227 -24.4016 -24.4016 -24.3736 -24.3736
   -24.3434 -24.3434 -24.3356 -24.3356 -24.1773 -24.1773 -24.1024 -24.1024
     5.2271   5.2271   7.9518   7.9518   8.7412   8.7412   9.0510   9.0510
    18.6523  18.6523  19.4970  19.4970  20.1553  20.1553  20.3734  20.3734
    21.3512  21.3512  21.4060  21.4060  22.8400  22.8400  23.1197  23.1197
    23.2799  23.2799  23.7102  23.7102  24.0068  24.0068  24.5421  24.5421
    24.5544  24.5544  24.8025  24.8025  25.6283  25.6283  27.8327  27.8327
    28.1830  28.1830  29.0275  29.0275  29.0285  29.0285  29.7177  29.7177
    30.6709  30.6709  31.1503  31.1503  36.2231  36.2231  39.6520  39.6520
    39.9314  39.9314  41.4704  41.4704  41.8944  41.8944  42.2587  42.2587
    43.1944  43.1944  44.0625  44.0625  44.5187  44.5187  45.1810  45.1810
    46.6689  46.6689  46.8805  46.8805  48.1465  48.1465  48.5686  48.5686
    49.2489  49.2489  50.9841  50.9842  51.6462  51.6462  52.7455  52.7456
    53.0299  53.0299  53.4338  53.4339  54.4894  54.4896  54.5560  54.5565
    55.0135

          k = 0.0000 0.2533 0.0000 (  3664 PWs)   bands (ev):

   -65.2416 -65.2416 -65.2063 -65.1839 -24.4122 -24.4014 -24.3826 -24.3628
   -24.3477 -24.3429 -24.3150 -24.3148 -24.1561 -24.1494 -24.0951 -24.0915
     5.1920   6.5144   6.9575   7.4056   8.1276   8.3260   9.6963   9.8452
    18.5290  18.8391  19.0165  19.3858  19.4832  19.6430  20.6917  20.8830
    20.8924  21.1192  21.3117  21.6013  21.9316  22.1739  22.4022  22.9160
    23.1882  23.3551  23.4064  23.5897  23.9798  24.3068  24.3899  24.7507
    25.6103  25.8174  25.8263  26.4541  26.5567  26.9852  27.6212  27.9154
    28.0284  28.4044  28.4551  28.9438  29.1169  29.2024  29.3171  29.3904
    29.8671  30.3872  30.5395  31.5383  35.5915  37.9716  38.7966  39.2249
    39.4884  40.3681  40.5137  40.7537  41.6604  41.9103  42.1345  42.3690
    42.8397  42.8412  43.1984  44.6963  44.9740  45.2945  45.6330  45.6825
    45.8817  46.3939  46.8003  47.4427  47.9519  48.2702  48.6710  48.9251
    49.2031  50.5468  50.6125  51.0611  51.5460  51.9306  51.9601  52.1068
    52.9343  53.3361  53.3392  53.4483  53.9154  54.5464  54.7182  55.1876
    55.3282

          k = 0.0000 0.2533 0.1317 (  3669 PWs)   bands (ev):

   -65.2373 -65.2343 -65.2185 -65.2017 -24.4044 -24.4009 -24.3775 -24.3677
   -24.3494 -24.3430 -24.3286 -24.3132 -24.1595 -24.1528 -24.1057 -24.0915
     5.3342   6.2799   6.8252   7.4783   8.1792   8.6665   9.5678   9.6586
    18.8351  18.8982  19.0422  19.1597  19.6243  20.0100  20.4884  20.6462
    20.8204  21.1430  21.4792  21.8114  22.0515  22.1494  22.4560  22.8777
    23.1349  23.1879  23.5469  23.6694  23.9327  24.2747  24.6621  24.7591
    24.9163  25.4864  25.5675  26.1360  26.4476  26.8939  26.9601  27.4117
    27.9090  28.4778  29.0993  29.2030  29.3775  29.4567  29.7060  29.7280
    30.0052  30.5528  30.6729  31.2770  35.9249  37.7263  38.9606  39.6146
    39.6977  40.6538  40.6928  40.9587  41.3580  41.5763  41.6050  42.3350
    42.5657  42.8308  43.8821  44.2448  44.8496  45.1020  45.2165  45.3186
    46.2479  46.5749  47.0425  47.4225  47.6401  48.1289  48.7733  49.3923
    49.6874  49.8589  50.4011  50.6276  50.6488  51.1091  51.9524  52.2918
    52.4629  52.8776  53.3190  53.6052  54.0547  54.1751  55.2243  55.2304
    55.3529

          k = 0.0000 0.2533-0.2634 (  3666 PWs)   bands (ev):

   -65.2296 -65.2296 -65.2132 -65.2132 -24.3991 -24.3991 -24.3761 -24.3761
   -24.3480 -24.3480 -24.3158 -24.3158 -24.1549 -24.1549 -24.0982 -24.0982
     5.7332   5.7332   7.0981   7.0981   8.7254   8.7254   9.4024   9.4024
    19.0156  19.0156  19.0919  19.0919  20.1290  20.1290  20.3969  20.3969
    20.8519  20.8519  21.7481  21.7481  21.9058  21.9058  22.8675  22.8675
    23.4889  23.4889  23.5486  23.5486  24.0976  24.0976  24.4681  24.4681
    24.9299  24.9299  25.3914  25.3914  26.6509  26.6509  26.9023  26.9023
    28.2078  28.2078  29.3605  29.3605  29.4757  29.4757  30.0986  30.0986
    30.6676  30.6676  30.7788  30.7788  36.8683  36.8683  39.5608  39.5608
    40.2497  40.2497  40.3446  40.3446  41.9633  41.9633  41.9830  41.9830
    43.3406  43.3406  43.6170  43.6170  44.0535  44.0535  45.6528  45.6528
    46.0905  46.0905  46.9370  46.9370  48.1972  48.1972  48.7358  48.7358
    49.7972  49.7972  50.2957  50.2957  51.1265  51.1266  51.9529  51.9529
    52.3948  52.3948  53.2343  53.2344  54.5044  54.5044  54.9046  54.9047
    56.3021

          k =-0.5000 0.0000 0.0000 (  3722 PWs)   bands (ev):

   -65.2585 -65.2585 -65.2561 -65.2561 -24.4493 -24.4493 -24.4265 -24.4265
   -24.3428 -24.3428 -24.3363 -24.3363 -24.1457 -24.1457 -24.1232 -24.1232
     6.4066   6.4066   7.5613   7.5613   7.9107   7.9107   9.0572   9.0572
    18.8396  18.8396  19.8295  19.8295  20.1431  20.1431  20.6659  20.6659
    20.8978  20.8978  21.9192  21.9192  22.1287  22.1287  22.6894  22.6894
    22.9664  22.9664  23.6599  23.6599  23.6998  23.6998  24.4799  24.4799
    25.2928  25.2928  25.3473  25.3473  25.4680  25.4680  27.1496  27.1496
    28.4776  28.4776  28.6087  28.6087  29.4066  29.4066  29.6185  29.6185
    30.5313  30.5313  31.2348  31.2348  35.0589  35.0589  38.8575  38.8575
    40.9334  40.9334  42.4915  42.4915  43.3555  43.3555  43.7186  43.7186
    44.4642  44.4642  45.2445  45.2445  45.9260  45.9260  46.0164  46.0164
    46.8495  46.8495  47.2655  47.2655  47.5334  47.5334  48.6780  48.6780
    49.3557  49.3557  50.0934  50.0934  50.2780  50.2780  50.4395  50.4395
    50.8484  50.8484  51.3636  51.3636  52.2366  52.2367  54.1438  54.1439
    54.9954

          k =-0.5000 0.0000 0.1317 (  3710 PWs)   bands (ev):

   -65.2512 -65.2512 -65.2475 -65.2475 -24.4425 -24.4425 -24.4233 -24.4233
   -24.3387 -24.3387 -24.3292 -24.3292 -24.1426 -24.1426 -24.1240 -24.1240
     6.4567   6.4567   7.4825   7.4825   7.9354   7.9354   9.0344   9.0344
    18.9779  18.9779  19.9384  19.9384  20.1799  20.1799  20.8232  20.8232
    20.9972  20.9972  21.8791  21.8791  21.9849  21.9849  22.4892  22.4892
    22.8811  22.8811  23.4187  23.4187  23.7636  23.7636  24.6510  24.6510
    24.7424  24.7424  25.4279  25.4279  25.8512  25.8512  27.0701  27.0701
    27.8212  27.8212  28.7258  28.7258  29.3978  29.3978  29.5143  29.5143
    31.2503  31.2503  31.4220  31.4220  35.4455  35.4455  39.0781  39.0781
    41.1613  41.1613  42.3387  42.3387  42.8897  42.8897  43.8983  43.8983
    44.0435  44.0435  44.5520  44.5520  44.7031  44.7031  45.4901  45.4901
    46.7621  46.7621  47.4189  47.4189  48.4362  48.4362  48.7780  48.7780
    49.6490  49.6490  50.0057  50.0057  50.4114  50.4114  51.2634  51.2635
    51.6888  51.6890  52.1187  52.1188  52.2861  52.2861  53.2260  53.2262
    55.1312

          k =-0.5000 0.0000-0.2634 (  3680 PWs)   bands (ev):

   -65.2362 -65.2362 -65.2254 -65.2254 -24.4288 -24.4288 -24.4169 -24.4169
   -24.3281 -24.3281 -24.3178 -24.3178 -24.1315 -24.1315 -24.1231 -24.1231
     6.5160   6.5160   7.3977   7.3977   7.9602   7.9602   9.0103   9.0103
    19.0700  19.0700  20.2386  20.2386  20.2850  20.2850  20.7064  20.7064
    21.3945  21.3945  21.5497  21.5497  21.9536  21.9536  22.2480  22.2480
    22.6717  22.6717  23.3021  23.3021  23.7256  23.7256  24.5413  24.5413
    25.0101  25.0101  25.4364  25.4364  25.8793  25.8793  26.9482  26.9482
    27.3666  27.3666  28.9085  28.9085  29.3634  29.3634  29.3955  29.3955
    31.5754  31.5754  31.7735  31.7735  36.0537  36.0537  39.0051  39.0051
    41.8515  41.8515  42.0542  42.0542  42.5555  42.5555  42.7892  42.7892
    43.7595  43.7595  44.0971  44.0971  44.7918  44.7918  45.8301  45.8301
    45.9001  45.9001  47.9734  47.9734  48.0267  48.0267  48.6787  48.6787
    50.0338  50.0338  50.3582  50.3582  50.5881  50.5881  50.8714  50.8715
    52.2762  52.2763  53.1099  53.1102  53.4096  53.4098  53.9513  53.9515
    54.5964

          k =-0.5000 0.2533 0.0000 (  3686 PWs)   bands (ev):

   -65.2411 -65.2411 -65.2313 -65.2313 -24.4431 -24.4431 -24.4276 -24.4276
   -24.3275 -24.3275 -24.3249 -24.3249 -24.1251 -24.1251 -24.1124 -24.1124
     6.8006   6.8006   7.4680   7.4680   8.0838   8.0838   8.5349   8.5349
    19.0032  19.0032  19.0553  19.0553  20.3178  20.3178  20.9222  20.9222
    20.9309  20.9309  21.7629  21.7629  22.1494  22.1494  22.1941  22.1941
    22.8602  22.8602  23.4971  23.4971  24.1518  24.1518  24.5971  24.5971
    25.1609  25.1609  25.1807  25.1807  26.4118  26.4118  27.4304  27.4304
    28.1410  28.1410  28.1684  28.1684  29.8219  29.8219  30.2720  30.2720
    30.7136  30.7136  30.7591  30.7591  36.1268  36.1268  38.4510  38.4510
    41.5986  41.5986  41.7973  41.7973  42.2956  42.2956  44.0549  44.0549
    44.0828  44.0828  44.7001  44.7001  44.9860  44.9860  45.8904  45.8904
    46.7074  46.7074  47.2840  47.2840  47.9923  47.9923  48.4358  48.4358
    48.6642  48.6642  49.2619  49.2619  50.7170  50.7171  51.7380  51.7383
    51.9961  51.9963  52.4026  52.4028  53.5425  53.5428  53.7901  53.7907
    54.3688

          k =-0.5000 0.2533 0.1317 (  3692 PWs)   bands (ev):

   -65.2517 -65.2517 -65.2284 -65.2284 -24.4344 -24.4344 -24.4303 -24.4303
   -24.3317 -24.3317 -24.3272 -24.3272 -24.1346 -24.1346 -24.1129 -24.1129
     6.8505   6.8505   7.4675   7.4675   8.0534   8.0534   8.4817   8.4817
    19.2428  19.2428  19.3702  19.3702  20.2762  20.2762  20.6743  20.6743
    20.9859  20.9859  21.6070  21.6070  22.0222  22.0222  22.2491  22.2491
    22.7282  22.7282  23.4121  23.4121  24.0822  24.0822  24.7008  24.7008
    24.9737  24.9737  25.2808  25.2808  26.4629  26.4629  27.0722  27.0722
    28.0710  28.0710  28.4870  28.4870  29.9027  29.9027  30.1103  30.1103
    30.7471  30.7471  31.1270  31.1270  36.4613  36.4613  38.8597  38.8597
    41.3919  41.3919  41.8422  41.8422  42.3924  42.3924  42.8940  42.8940
    43.5455  43.5455  44.2975  44.2975  45.3725  45.3725  46.0889  46.0889
    46.6854  46.6854  46.9769  46.9769  48.0220  48.0220  48.6026  48.6026
    49.2808  49.2808  50.1231  50.1231  50.3854  50.3854  51.3142  51.3143
    51.7606  51.7611  52.4648  52.4650  53.5017  53.5018  53.7545  53.7548
    54.4127

          k =-0.5000 0.2533-0.2634 (  3704 PWs)   bands (ev):

   -65.2630 -65.2630 -65.2331 -65.2331 -24.4365 -24.4365 -24.4323 -24.4323
   -24.3365 -24.3365 -24.3286 -24.3286 -24.1367 -24.1367 -24.1228 -24.1228
     6.9096   6.9096   7.4533   7.4533   8.0352   8.0352   8.4204   8.4204
    19.6929  19.6929  19.7434  19.7434  20.2836  20.2836  20.2915  20.2915
    20.8657  20.8657  21.4246  21.4246  21.8790  21.8790  22.3632  22.3632
    22.4958  22.4958  23.3397  23.3397  24.1193  24.1193  24.7617  24.7617
    24.9504  24.9504  25.3926  25.3926  26.0735  26.0735  27.1221  27.1221
    28.0791  28.0791  28.6034  28.6034  29.9303  29.9303  30.0145  30.0145
    30.8797  30.8797  31.3439  31.3439  36.9877  36.9877  39.3414  39.3414
    40.8953  40.8953  41.6618  41.6618  41.8899  41.8899  42.4785  42.4785
    43.8624  43.8624  43.8925  43.8925  45.4787  45.4787  46.1339  46.1339
    46.6682  46.6682  47.0816  47.0816  47.3396  47.3396  48.9419  48.9419
    49.2130  49.2130  50.4101  50.4101  51.0477  51.0477  51.5015  51.5018
    51.7573  51.7574  51.9407  51.9408  52.8501  52.8505  53.9976  53.9977
    54.9476

     the Fermi energy is    48.4119 ev

!    total energy              =   -2071.43217174 Ry
     Harris-Foulkes estimate   =   -2071.43217560 Ry
     estimated scf accuracy    <       0.00000464 Ry

     The total energy is the sum of the following terms:

     one-electron contribution =      62.42805720 Ry
     hartree contribution      =     239.22355495 Ry
     xc contribution           =    -219.41961834 Ry
     ewald contribution        =   -2153.30399385 Ry
     smearing contrib. (-TS)   =      -0.36017170 Ry

     convergence has been achieved in  11 iterations

     Forces acting on atoms (Ry/au):

     atom    1 type  1   force =     0.00000000   -0.07244742   -0.09256442
     atom    2 type  1   force =     0.00000000    0.07244742    0.09256442
     atom    3 type  1   force =     0.00000000   -0.07244742    0.09256442
     atom    4 type  1   force =     0.00000000    0.07244742   -0.09256442
     atom    5 type  1   force =     0.00000000    0.20339139   -0.31711318
     atom    6 type  1   force =     0.00000000   -0.20339139    0.31711318
     atom    7 type  1   force =     0.00000000    0.20339139    0.31711318
     atom    8 type  1   force =     0.00000000   -0.20339139   -0.31711318
     atom    9 type  2   force =     0.00000000   -0.18804756   -0.00360008
     atom   10 type  2   force =     0.00000000    0.18804756    0.00360008
     atom   11 type  2   force =     0.00000000   -0.18804756    0.00360008
     atom   12 type  2   force =     0.00000000    0.18804756   -0.00360008

     Total force =     0.874347     Total SCF correction =     0.000000


     entering subroutine stress ...

          total   stress  (Ry/bohr**3)                   (kbar)     P= 6777.77
   0.05089420   0.00000000   0.00000000       7486.79      0.00      0.00
   0.00000000   0.04192006   0.00000000          0.00   6166.65      0.00
   0.00000000   0.00000000   0.04540878          0.00      0.00   6679.86


     BFGS Geometry Optimization

     number of scf cycles    =   1
     number of bfgs steps    =   0

     enthalpy new            =   -2071.4321717386 Ry

     new trust radius        =       0.5000000000 bohr
     new conv_thr            =       0.0001000000 Ry

     new unit-cell volume =   1077.36360 a.u.^3 (   159.64881 Ang^3 )

CELL_PARAMETERS (alat=  7.01510508)
   1.085136619   0.000000000   0.000000000
   0.000000000   1.408244703   0.000000000
   0.000000000   0.000000000   2.042195006

ATOMIC_POSITIONS (crystal)
Co       0.750000000   0.825875887   0.435270824
Co       0.250000000   0.174124113   0.564729176
Co       0.750000000   0.325875887   0.064729176
Co       0.250000000   0.674124113   0.935270824
Co       0.250000000   0.538560221   0.280751371
Co       0.750000000   0.461439779   0.719248629
Co       0.250000000   0.038560221   0.219248629
Co       0.750000000   0.961439779   0.780751371
Si       0.250000000   0.201490994   0.893581908
Si       0.750000000   0.798509006   0.106418092
Si       0.250000000   0.701490994   0.606418092
Si       0.750000000   0.298509006   0.393581908



     Writing output data file Prototype-La-oP12-Co2Si.save
     NEW-OLD atomic charge density approx. for the potential
     NEW k-points:
        k(    1) = (   0.0000000   0.0000000   0.0000000), wk =   0.0833333
        k(    2) = (   0.0000000   0.0000000   0.1224173), wk =   0.1666667
        k(    3) = (   0.0000000   0.0000000  -0.2448346), wk =   0.0833333
        k(    4) = (   0.0000000   0.2367013   0.0000000), wk =   0.1666667
        k(    5) = (   0.0000000   0.2367013   0.1224173), wk =   0.3333333
        k(    6) = (   0.0000000   0.2367013  -0.2448346), wk =   0.1666667
        k(    7) = (  -0.4607715   0.0000000   0.0000000), wk =   0.0833333
        k(    8) = (  -0.4607715   0.0000000   0.1224173), wk =   0.1666667
        k(    9) = (  -0.4607715   0.0000000  -0.2448346), wk =   0.0833333
        k(   10) = (  -0.4607715   0.2367013   0.0000000), wk =   0.1666667
        k(   11) = (  -0.4607715   0.2367013   0.1224173), wk =   0.3333333
        k(   12) = (  -0.4607715   0.2367013  -0.2448346), wk =   0.1666667

     total cpu time spent up to now is      167.0 secs

     Self-consistent Calculation

     iteration #  1     ecut=    40.00 Ry     beta=0.70
     CG style diagonalization
     c_bands:  3 eigenvalues not converged
     c_bands:  3 eigenvalues not converged
     c_bands:  1 eigenvalues not converged
     c_bands:  2 eigenvalues not converged
     c_bands:  2 eigenvalues not converged
     c_bands:  1 eigenvalues not converged
     c_bands:  1 eigenvalues not converged
     ethr =  1.00E-06,  avg # of iterations = 21.3

     total cpu time spent up to now is      208.4 secs

     total energy              =   -2071.88726866 Ry
     Harris-Foulkes estimate   =   -2087.15868596 Ry
     estimated scf accuracy    <      19.47376498 Ry

     iteration #  2     ecut=    40.00 Ry     beta=0.70
     CG style diagonalization
     ethr =  1.00E-02,  avg # of iterations =  3.8

     total cpu time spent up to now is      216.2 secs

     total energy              =   -2076.51103814 Ry
     Harris-Foulkes estimate   =   -2079.65034634 Ry
     estimated scf accuracy    <       4.50377910 Ry

     iteration #  3     ecut=    40.00 Ry     beta=0.70
     CG style diagonalization
     ethr =  2.40E-03,  avg # of iterations =  4.0

     total cpu time spent up to now is      223.7 secs

     total energy              =   -2077.87232865 Ry
     Harris-Foulkes estimate   =   -2078.24601239 Ry
     estimated scf accuracy    <       0.66548871 Ry

     iteration #  4     ecut=    40.00 Ry     beta=0.70
     CG style diagonalization
     ethr =  3.54E-04,  avg # of iterations =  3.7

     total cpu time spent up to now is      231.2 secs

     total energy              =   -2078.05173994 Ry
     Harris-Foulkes estimate   =   -2078.10018311 Ry
     estimated scf accuracy    <       0.09713187 Ry

     iteration #  5     ecut=    40.00 Ry     beta=0.70
     CG style diagonalization
     ethr =  5.17E-05,  avg # of iterations =  3.6

     total cpu time spent up to now is      238.2 secs

     total energy              =   -2078.07218003 Ry
     Harris-Foulkes estimate   =   -2078.07436643 Ry
     estimated scf accuracy    <       0.00405445 Ry

     iteration #  6     ecut=    40.00 Ry     beta=0.70
     CG style diagonalization
     c_bands:  1 eigenvalues not converged
     c_bands:  1 eigenvalues not converged
     c_bands:  1 eigenvalues not converged
     c_bands:  1 eigenvalues not converged
     ethr =  2.16E-06,  avg # of iterations =  4.8

     total cpu time spent up to now is      248.3 secs

     total energy              =   -2078.07382470 Ry
     Harris-Foulkes estimate   =   -2078.07398980 Ry
     estimated scf accuracy    <       0.00028788 Ry

     iteration #  7     ecut=    40.00 Ry     beta=0.70
     CG style diagonalization
     ethr =  1.53E-07,  avg # of iterations =  4.3

     total cpu time spent up to now is      256.9 secs

     End of self-consistent calculation

          k = 0.0000 0.0000 0.0000 (  3675 PWs)   bands (ev):

   -73.4813 -73.4498 -73.4445 -73.4125 -32.8519 -32.8483 -32.8376 -32.8256
   -32.8234 -32.8204 -32.8126 -32.8103 -32.7274 -32.7202 -32.7113 -32.6851
    -1.9703  -0.8968  -0.5699   0.0489   0.3008   0.6314   0.7079   0.8443
    12.2479  12.2872  12.6915  13.0536  13.5184  13.6806  13.6833  13.8571
    13.9177  14.1670  14.2617  14.4042  14.6869  14.7371  15.0722  15.2135
    15.3672  15.4557  15.5402  15.5962  15.6463  15.6865  16.2294  16.3086
    16.8860  17.1521  17.5526  17.6888  18.1383  18.2711  18.3076  18.3134
    18.4351  18.5619  19.2641  19.6412  19.6888  19.7588  19.8868  19.9003
    20.1059  21.1958  21.2501  21.2609  26.8994  27.2278  28.1920  29.4560
    30.5040  31.4632  32.3079  33.2999  33.4356  33.4980  33.5812  34.4481
    34.4837  34.7007  34.8534  34.9160  35.0934  35.8846  35.9628  36.1093
    37.7654  37.9083  37.9952  38.4841  38.9810  39.5539  39.5724  39.9808
    40.7601  40.7910  41.0628  41.0800  41.2437  41.4190  41.4248  41.5056
    41.6814  42.5808  42.9210  43.2048  43.6827  43.7934  44.3499  44.4510
    45.0464

          k = 0.0000 0.0000 0.1224 (  3675 PWs)   bands (ev):

   -73.4929 -73.4436 -73.4411 -73.4110 -32.8451 -32.8339 -32.8336 -32.8328
   -32.8268 -32.8211 -32.8180 -32.8102 -32.7331 -32.7287 -32.7022 -32.6901
    -1.8779  -1.2315  -0.2413   0.0569   0.3147   0.6410   0.6841   0.7357
    12.2826  12.4761  12.7650  13.1593  13.1903  13.3683  13.7330  13.7756
    14.2222  14.3263  14.4201  14.5598  14.5775  14.6812  15.1941  15.2918
    15.3228  15.5094  15.6227  15.6250  15.6970  15.7772  16.1036  16.2353
    16.7485  16.8128  17.2551  17.2582  17.3903  17.6769  18.5205  18.7522
    19.0048  19.2669  19.3940  19.6103  19.6218  19.6383  19.8304  19.9103
    20.2744  21.0226  21.2270  21.2976  27.0863  27.6216  28.3393  29.4660
    30.7674  31.7320  32.0683  33.2421  33.5186  33.7181  33.7888  33.9729
    34.0703  34.2807  34.6763  34.9135  35.5080  35.8240  36.1504  36.1859
    37.0365  37.0680  37.2035  38.0445  39.0820  39.2576  39.6557  39.9316
    40.1713  40.3015  40.8356  40.9977  41.3436  42.2045  42.4280  42.5133
    42.7849  42.9976  43.0137  43.6612  43.6695  43.7478  44.2863  44.7843
    44.8300

          k = 0.0000 0.0000-0.2448 (  3690 PWs)   bands (ev):

   -73.4883 -73.4883 -73.4381 -73.4381 -32.8371 -32.8371 -32.8314 -32.8314
   -32.8266 -32.8266 -32.8246 -32.8246 -32.7441 -32.7441 -32.7022 -32.7022
    -1.6164  -1.6164   0.0273   0.0273   0.4540   0.4540   0.6681   0.6681
    12.4358  12.4358  12.9935  12.9935  13.4328  13.4328  13.5571  13.5571
    14.1773  14.1773  14.3586  14.3586  15.0639  15.0639  15.2871  15.2871
    15.4306  15.4306  15.6243  15.6243  15.9074  15.9074  16.3549  16.3549
    16.3733  16.3733  16.6208  16.6208  17.3703  17.3703  18.9962  18.9962
    19.0690  19.0690  19.5516  19.5516  19.6479  19.6479  20.0175  20.0175
    20.6111  20.6111  21.2418  21.2418  27.5197  27.5197  29.1137  29.1137
    31.4298  31.4298  32.7197  32.7197  33.3554  33.3554  33.6257  33.6257
    34.5490  34.5490  34.8839  34.8839  35.1970  35.1970  35.4986  35.4986
    37.3515  37.3515  37.6347  37.6347  38.6542  38.6542  39.2094  39.2094
    39.9579  39.9579  41.4942  41.4942  41.9439  41.9440  42.8475  42.8475
    43.5794  43.5795  43.7316  43.7319  44.1462  44.1463  44.1595  44.1595
    45.2309

          k = 0.0000 0.2367 0.0000 (  3664 PWs)   bands (ev):

   -73.4756 -73.4749 -73.4075 -73.3688 -32.8518 -32.8420 -32.8322 -32.8297
   -32.8227 -32.8141 -32.8108 -32.8048 -32.7222 -32.7212 -32.6914 -32.6912
    -1.6174  -0.8051  -0.6038  -0.2772   0.1425   0.2845   0.9518   0.9777
    12.3709  12.5355  12.6651  12.8761  13.0310  13.0998  13.8229  13.8808
    13.9919  14.1650  14.2217  14.3829  14.6377  14.7033  14.8118  15.1433
    15.2540  15.3664  15.4730  15.5683  15.8676  16.0893  16.1795  16.4017
    17.1035  17.3507  17.5413  18.0780  18.1448  18.2101  18.4985  18.6073
    19.1301  19.1532  19.3120  19.4716  19.4846  19.5280  19.7721  19.9062
    20.1816  20.5583  20.6519  21.2097  27.3561  28.8638  28.9146  30.0248
    31.2701  31.2895  31.9513  32.6579  32.7132  32.7825  33.3282  33.7283
    33.9305  34.1221  34.2314  35.3174  36.0739  36.1390  36.1672  36.5955
    36.6334  36.9448  37.4802  37.9850  38.0061  38.4276  39.2113  39.4830
    39.5239  40.0406  40.8379  41.2640  41.4548  41.5674  41.9917  42.3859
    42.8501  42.8559  43.4146  43.5662  44.0002  44.0088  44.3453  44.6970
    44.9070

          k = 0.0000 0.2367 0.1224 (  3669 PWs)   bands (ev):

   -73.4672 -73.4618 -73.4297 -73.3987 -32.8462 -32.8410 -32.8282 -32.8270
   -32.8224 -32.8209 -32.8190 -32.8066 -32.7281 -32.7231 -32.7031 -32.6903
    -1.5333  -0.9795  -0.6093  -0.2684   0.1989   0.4471   0.8729   0.9104
    12.5699  12.5756  12.6820  12.7718  13.0588  13.3163  13.6887  13.7908
    13.8525  14.0917  14.3358  14.5357  14.6154  14.7825  14.8694  15.1059
    15.2741  15.3918  15.5391  15.6806  15.8075  16.0424  16.3333  16.4746
    16.6363  17.1521  17.4191  17.6989  17.7348  18.0208  18.3940  18.4620
    18.8887  19.2926  19.4819  19.6091  19.7285  19.7430  20.0655  20.1720
    20.3315  20.6498  20.7624  21.0679  27.5952  28.5750  29.4654  30.0595
    31.1436  31.4155  31.9943  32.3658  32.4501  32.7770  33.4658  33.7174
    34.0051  34.0461  34.3787  35.1570  35.4740  35.8630  36.2066  36.5062
    36.7302  36.9407  37.4463  38.1760  38.1957  38.4190  39.0315  39.5668
    40.0155  40.0912  40.4825  40.5336  40.8135  41.1758  42.1600  42.4360
    42.5390  42.8994  43.1075  43.9865  44.0182  44.3662  44.4266  44.9459
    45.8846

          k = 0.0000 0.2367-0.2448 (  3666 PWs)   bands (ev):

   -73.4513 -73.4513 -73.4211 -73.4211 -32.8378 -32.8378 -32.8281 -32.8281
   -32.8261 -32.8261 -32.8098 -32.8098 -32.7234 -32.7234 -32.6970 -32.6970
    -1.2991  -1.2991  -0.4574  -0.4574   0.4799   0.4799   0.7893   0.7893
    12.6590  12.6590  12.7458  12.7458  13.3509  13.3509  13.6195  13.6195
    13.8212  13.8212  14.5014  14.5014  14.6294  14.6294  15.1172  15.1172
    15.5361  15.5361  15.6014  15.6014  15.9943  15.9943  16.2900  16.2900
    16.7912  16.7912  16.9556  16.9556  18.0772  18.0772  18.0851  18.0851
    19.1256  19.1256  19.7232  19.7232  19.7615  19.7615  20.3588  20.3588
    20.7701  20.7701  20.7807  20.7807  28.1761  28.1761  29.9955  29.9955
    31.1471  31.1471  31.8300  31.8300  32.9471  32.9471  33.6747  33.6747
    34.0641  34.0641  34.8497  34.8497  35.0524  35.0524  36.1325  36.1325
    36.9107  36.9107  37.6159  37.6159  38.8370  38.8370  38.8845  38.8845
    39.8894  39.8894  40.8553  40.8553  41.0894  41.0894  41.9257  41.9257
    42.8553  42.8553  42.9698  42.9698  44.0982  44.0983  45.6905  45.6922
    45.8177

          k =-0.4608 0.0000 0.0000 (  3722 PWs)   bands (ev):

   -73.5112 -73.5112 -73.5033 -73.5033 -32.8735 -32.8735 -32.8577 -32.8577
   -32.8340 -32.8340 -32.8279 -32.8279 -32.7267 -32.7267 -32.7140 -32.7140
    -0.9700  -0.9700  -0.2026  -0.2026   0.0229   0.0229   0.6690   0.6690
    12.6544  12.6544  13.3445  13.3445  13.5088  13.5088  13.9099  13.9099
    14.0802  14.0802  14.4952  14.4952  14.7878  14.7878  14.9859  14.9859
    15.1607  15.1607  15.5137  15.5137  15.7390  15.7390  15.8417  15.8417
    16.5273  16.5273  16.9036  16.9036  17.0392  17.0392  18.2525  18.2525
    19.1961  19.1961  19.4029  19.4029  19.9338  19.9338  20.1184  20.1184
    20.6825  20.6825  21.2965  21.2965  26.4866  26.4866  29.5135  29.5135
    32.5748  32.5748  34.3386  34.3386  34.4539  34.4539  34.8673  34.8673
    35.5797  35.5797  35.8813  35.8813  36.6343  36.6343  37.2327  37.2327
    37.3653  37.3653  37.8314  37.8314  37.8505  37.8505  38.8837  38.8837
    39.5287  39.5287  40.1293  40.1293  40.2310  40.2310  40.5794  40.5794
    40.6802  40.6802  41.9277  41.9277  43.0030  43.0030  43.7727  43.7727
    44.6372

          k =-0.4608 0.0000 0.1224 (  3710 PWs)   bands (ev):

   -73.4934 -73.4934 -73.4902 -73.4902 -32.8663 -32.8663 -32.8562 -32.8562
   -32.8289 -32.8289 -32.8207 -32.8207 -32.7248 -32.7248 -32.7139 -32.7139
    -0.9504  -0.9504  -0.2358  -0.2358   0.0371   0.0371   0.6625   0.6625
    12.7437  12.7437  13.4268  13.4268  13.5537  13.5537  14.0220  14.0220
    14.0810  14.0810  14.4993  14.4993  14.6834  14.6834  14.8587  14.8587
    15.1542  15.1542  15.4528  15.4528  15.6948  15.6948  16.0168  16.0168
    16.2650  16.2650  16.6741  16.6741  17.4276  17.4276  18.2157  18.2157
    18.6286  18.6286  19.5860  19.5860  19.9222  19.9222  20.0406  20.0406
    21.0894  21.0894  21.3831  21.3831  26.7648  26.7648  29.5879  29.5879
    32.7920  32.7920  33.9698  33.9698  34.3714  34.3714  34.8274  34.8274
    35.4640  35.4640  35.6162  35.6162  35.7458  35.7458  36.6548  36.6548
    37.4865  37.4865  37.7203  37.7203  38.1517  38.1517  38.7921  38.7921
    39.9605  39.9605  40.2437  40.2437  40.5312  40.5312  41.1627  41.1628
    41.5533  41.5533  42.4368  42.4374  42.7792  42.7792  43.3992  43.3999
    43.8319

          k =-0.4608 0.0000-0.2448 (  3680 PWs)   bands (ev):

   -73.4680 -73.4680 -73.4434 -73.4434 -32.8520 -32.8520 -32.8491 -32.8491
   -32.8184 -32.8184 -32.8099 -32.8099 -32.7133 -32.7133 -32.7115 -32.7115
    -0.9287  -0.9287  -0.2689  -0.2689   0.0502   0.0502   0.6556   0.6556
    12.8006  12.8006  13.6177  13.6177  13.6798  13.6798  13.9390  13.9390
    14.2353  14.2353  14.4334  14.4334  14.6055  14.6055  14.6791  14.6791
    15.1176  15.1176  15.3529  15.3529  15.6143  15.6143  16.1001  16.1001
    16.2970  16.2970  16.6326  16.6326  17.5497  17.5497  18.0990  18.0990
    18.3346  18.3346  19.6087  19.6087  19.9696  19.9696  19.9718  19.9718
    21.3934  21.3934  21.4595  21.4595  27.1140  27.1140  29.5895  29.5895
    33.2711  33.2711  33.7055  33.7055  33.8122  33.8122  34.4201  34.4201
    35.4248  35.4248  35.4924  35.4924  35.7845  35.7845  36.3263  36.3263
    37.1774  37.1774  37.8861  37.8861  38.0375  38.0375  38.3976  38.3976
    40.3830  40.3830  40.5129  40.5129  41.0239  41.0239  41.7745  41.7747
    41.8323  41.8323  42.4127  42.4128  42.9722  42.9723  43.1998  43.1998
    44.2922

          k =-0.4608 0.2367 0.0000 (  3686 PWs)   bands (ev):

   -73.4763 -73.4763 -73.4586 -73.4586 -32.8688 -32.8688 -32.8566 -32.8566
   -32.8176 -32.8176 -32.8146 -32.8146 -32.7088 -32.7088 -32.7009 -32.7009
    -0.7062  -0.7062  -0.2783  -0.2783   0.1034   0.1034   0.3743   0.3743
    12.8157  12.8157  12.8253  12.8253  13.5693  13.5693  13.8770  13.8770
    14.0391  14.0391  14.5191  14.5191  14.7038  14.7038  14.7181  14.7181
    15.1260  15.1260  15.5270  15.5270  15.8369  15.8369  16.1845  16.1845
    16.6157  16.6157  16.7724  16.7724  17.6121  17.6121  18.3625  18.3625
    19.0436  19.0436  19.2187  19.2187  20.1297  20.1297  20.5053  20.5053
    20.6949  20.6949  20.8557  20.8557  27.5714  27.5714  29.4686  29.4686
    32.9265  32.9265  33.5537  33.5537  33.5916  33.5916  34.6094  34.6094
    35.0604  35.0604  35.6379  35.6379  36.0154  36.0154  36.5221  36.5221
    37.3136  37.3136  37.6621  37.6621  38.5421  38.5421  38.5915  38.5915
    39.2440  39.2440  39.7054  39.7054  40.1212  40.1212  42.0598  42.0598
    42.0714  42.0715  42.6641  42.6642  42.6731  42.6731  43.5089  43.5093
    44.4811

          k =-0.4608 0.2367 0.1224 (  3692 PWs)   bands (ev):

   -73.4961 -73.4961 -73.4514 -73.4514 -32.8603 -32.8603 -32.8590 -32.8590
   -32.8223 -32.8223 -32.8171 -32.8171 -32.7186 -32.7186 -32.7009 -32.7009
    -0.6868  -0.6868  -0.2815  -0.2815   0.0966   0.0966   0.3571   0.3571
    12.9711  12.9711  13.0366  13.0366  13.5621  13.5621  13.8063  13.8063
    14.0005  14.0005  14.4063  14.4063  14.6430  14.6430  14.7441  14.7441
    15.0160  15.0160  15.4279  15.4279  15.8895  15.8895  16.2216  16.2216
    16.4610  16.4610  16.7705  16.7705  17.6387  17.6387  18.1777  18.1777
    19.0199  19.0199  19.3895  19.3895  20.1917  20.1917  20.4265  20.4265
    20.7462  20.7462  21.0256  21.0256  27.7899  27.7899  29.6683  29.6683
    32.7161  32.7161  33.5134  33.5134  33.7382  33.7382  34.2537  34.2537
    34.7146  34.7146  35.1468  35.1468  35.6934  35.6934  36.9797  36.9797
    37.2772  37.2772  37.5656  37.5656  38.3636  38.3636  38.9555  38.9555
    39.7412  39.7412  40.1505  40.1505  40.4080  40.4080  41.2698  41.2698
    41.7981  41.7982  42.5070  42.5070  43.1537  43.1537  43.5800  43.5801
    44.5764

          k =-0.4608 0.2367-0.2448 (  3704 PWs)   bands (ev):

   -73.5170 -73.5170 -73.4595 -73.4595 -32.8618 -32.8618 -32.8612 -32.8612
   -32.8266 -32.8266 -32.8208 -32.8208 -32.7197 -32.7197 -32.7114 -32.7114
    -0.6654  -0.6654  -0.2875  -0.2875   0.0922   0.0922   0.3384   0.3384
    13.2359  13.2359  13.3323  13.3323  13.5637  13.5637  13.6090  13.6090
    13.9525  13.9525  14.2536  14.2536  14.5399  14.5399  14.7961  14.7961
    14.8365  14.8365  15.3342  15.3342  15.9077  15.9077  16.3071  16.3071
    16.3870  16.3870  17.0245  17.0245  17.1780  17.1780  18.2341  18.2341
    19.0535  19.0535  19.4585  19.4585  20.2364  20.2364  20.3411  20.3411
    20.8548  20.8548  21.1435  21.1435  28.0666  28.0666  29.8643  29.8643
    32.4488  32.4488  33.2077  33.2077  33.7158  33.7158  34.1665  34.1665
    34.3025  34.3025  35.2797  35.2797  35.9940  35.9940  36.3840  36.3840
    37.2390  37.2390  37.7016  37.7016  37.9074  37.9074  39.6059  39.6059
    39.8340  39.8340  40.4323  40.4323  40.7300  40.7300  41.4969  41.4969
    41.8516  41.8516  42.0940  42.0940  42.5696  42.5696  43.5335  43.5336
    45.3311

     the Fermi energy is    38.7735 ev

!    total energy              =   -2078.07392059 Ry
     Harris-Foulkes estimate   =   -2078.07397096 Ry
     estimated scf accuracy    <       0.00005881 Ry

     The total energy is the sum of the following terms:

     one-electron contribution =    -145.62767369 Ry
     hartree contribution      =     280.45456852 Ry
     xc contribution           =    -212.56134680 Ry
     ewald contribution        =   -1999.93952591 Ry
     smearing contrib. (-TS)   =      -0.39994272 Ry

     convergence has been achieved in   7 iterations

     Forces acting on atoms (Ry/au):

     atom    1 type  1   force =     0.00000000   -0.05601535   -0.04384982
     atom    2 type  1   force =     0.00000000    0.05601535    0.04384982
     atom    3 type  1   force =     0.00000000   -0.05601535    0.04384982
     atom    4 type  1   force =     0.00000000    0.05601535   -0.04384982
     atom    5 type  1   force =     0.00000000    0.12809551   -0.20242737
     atom    6 type  1   force =     0.00000000   -0.12809551    0.20242737
     atom    7 type  1   force =     0.00000000    0.12809551    0.20242737
     atom    8 type  1   force =     0.00000000   -0.12809551   -0.20242737
     atom    9 type  2   force =     0.00000000   -0.13620627   -0.01564868
     atom   10 type  2   force =     0.00000000    0.13620627    0.01564868
     atom   11 type  2   force =     0.00000000   -0.13620627    0.01564868
     atom   12 type  2   force =     0.00000000    0.13620627   -0.01564868

     Total force =     0.570063     Total SCF correction =     0.000000


     entering subroutine stress ...

          total   stress  (Ry/bohr**3)                   (kbar)     P= 2700.98
   0.02052695   0.00000000   0.00000000       3019.62      0.00      0.00
   0.00000000   0.01640327   0.00000000          0.00   2413.00      0.00
   0.00000000   0.00000000   0.01815238          0.00      0.00   2670.31


     number of scf cycles    =   2
     number of bfgs steps    =   1

     enthalpy old            =   -2071.4321717386 Ry
     enthalpy new            =   -2078.0739205934 Ry

     CASE: enthalpy_new < enthalpy_old

     small trust_radius: resetting bfgs history

     new trust radius        =       3.3688025390 bohr
     new conv_thr            =       0.0001000000 Ry

     new unit-cell volume =   3341.97287 a.u.^3 (   495.22928 Ang^3 )

CELL_PARAMETERS (alat=  7.01510508)
   1.642000226   0.000000000   0.000000000
   0.000000000   1.985740336   0.000000000
   0.000000000   0.000000000   2.968962473

ATOMIC_POSITIONS (crystal)
Co       0.750000000   0.820205734   0.432210014
Co       0.250000000   0.179794266   0.567789986
Co       0.750000000   0.320205734   0.067789986
Co       0.250000000   0.679794266   0.932210014
Co       0.250000000   0.551526686   0.266621511
Co       0.750000000   0.448473314   0.733378489
Co       0.250000000   0.051526686   0.233378489
Co       0.750000000   0.948473314   0.766621511
Si       0.250000000   0.187703517   0.892489597
Si       0.750000000   0.812296483   0.107510403
Si       0.250000000   0.687703517   0.607510403
Si       0.750000000   0.312296483   0.392489597



     Writing output data file Prototype-La-oP12-Co2Si.save
     NEW-OLD atomic charge density approx. for the potential
     NEW k-points:
        k(    1) = (   0.0000000   0.0000000   0.0000000), wk =   0.0833333
        k(    2) = (   0.0000000   0.0000000   0.0842045), wk =   0.1666667
        k(    3) = (   0.0000000   0.0000000  -0.1684090), wk =   0.0833333
        k(    4) = (   0.0000000   0.1678635   0.0000000), wk =   0.1666667
        k(    5) = (   0.0000000   0.1678635   0.0842045), wk =   0.3333333
        k(    6) = (   0.0000000   0.1678635  -0.1684090), wk =   0.1666667
        k(    7) = (  -0.3045067   0.0000000   0.0000000), wk =   0.0833333
        k(    8) = (  -0.3045067   0.0000000   0.0842045), wk =   0.1666667
        k(    9) = (  -0.3045067   0.0000000  -0.1684090), wk =   0.0833333
        k(   10) = (  -0.3045067   0.1678635   0.0000000), wk =   0.1666667
        k(   11) = (  -0.3045067   0.1678635   0.0842045), wk =   0.3333333
        k(   12) = (  -0.3045067   0.1678635  -0.1684090), wk =   0.1666667

     total cpu time spent up to now is      260.4 secs

     Self-consistent Calculation

     iteration #  1     ecut=    40.00 Ry     beta=0.70
     CG style diagonalization
     c_bands:  5 eigenvalues not converged
     c_bands:  2 eigenvalues not converged
     c_bands:  1 eigenvalues not converged
     c_bands:  1 eigenvalues not converged
     c_bands:  1 eigenvalues not converged
     c_bands:  1 eigenvalues not converged
     c_bands:  1 eigenvalues not converged
     c_bands:  4 eigenvalues not converged
     ethr =  1.00E-06,  avg # of iterations = 37.1

     total cpu time spent up to now is      335.6 secs

     total energy              =   -1933.96333991 Ry
     Harris-Foulkes estimate   =   -2230.09091588 Ry
     estimated scf accuracy    <     369.16826311 Ry

     iteration #  2     ecut=    40.00 Ry     beta=0.70
     CG style diagonalization
     c_bands:  2 eigenvalues not converged
     ethr =  1.00E-02,  avg # of iterations =  9.2

     total cpu time spent up to now is      354.7 secs

     total energy              =   -1889.67324362 Ry
     Harris-Foulkes estimate   =   -2142.14388461 Ry
     estimated scf accuracy    <     496.06562107 Ry

     iteration #  3     ecut=    40.00 Ry     beta=0.70
     CG style diagonalization
     ethr =  1.00E-02,  avg # of iterations =  9.1

     total cpu time spent up to now is      375.1 secs

     total energy              =   -2049.17515350 Ry
     Harris-Foulkes estimate   =   -2077.00428739 Ry
     estimated scf accuracy    <      68.39615603 Ry

     iteration #  4     ecut=    40.00 Ry     beta=0.70
     CG style diagonalization
     ethr =  1.00E-02,  avg # of iterations =  4.5

     total cpu time spent up to now is      384.3 secs

     total energy              =   -2054.09057221 Ry
     Harris-Foulkes estimate   =   -2057.92217907 Ry
     estimated scf accuracy    <      12.50230394 Ry

     iteration #  5     ecut=    40.00 Ry     beta=0.70
     CG style diagonalization
     ethr =  6.65E-03,  avg # of iterations =  3.5

     total cpu time spent up to now is      391.0 secs

     total energy              =   -2053.82609786 Ry
     Harris-Foulkes estimate   =   -2055.41893442 Ry
     estimated scf accuracy    <       4.35881336 Ry

     iteration #  6     ecut=    40.00 Ry     beta=0.70
     CG style diagonalization
     ethr =  2.32E-03,  avg # of iterations =  3.8

     total cpu time spent up to now is      398.5 secs

     total energy              =   -2054.32010376 Ry
     Harris-Foulkes estimate   =   -2054.51098230 Ry
     estimated scf accuracy    <       0.48421484 Ry

     iteration #  7     ecut=    40.00 Ry     beta=0.70
     CG style diagonalization
     c_bands:  1 eigenvalues not converged
     c_bands:  2 eigenvalues not converged
     c_bands:  2 eigenvalues not converged
     c_bands:  1 eigenvalues not converged
     c_bands:  1 eigenvalues not converged
     c_bands:  1 eigenvalues not converged
     c_bands:  2 eigenvalues not converged
     c_bands:  1 eigenvalues not converged
     ethr =  2.58E-04,  avg # of iterations =  5.0

     total cpu time spent up to now is      408.5 secs

     total energy              =   -2054.45579170 Ry
     Harris-Foulkes estimate   =   -2054.53484612 Ry
     estimated scf accuracy    <       0.22598382 Ry

     iteration #  8     ecut=    40.00 Ry     beta=0.70
     CG style diagonalization
     c_bands:  3 eigenvalues not converged
     c_bands:  1 eigenvalues not converged
     c_bands:  1 eigenvalues not converged
     ethr =  1.20E-04,  avg # of iterations =  4.2

     total cpu time spent up to now is      416.6 secs

     total energy              =   -2054.50219912 Ry
     Harris-Foulkes estimate   =   -2054.52040239 Ry
     estimated scf accuracy    <       0.08889441 Ry

     iteration #  9     ecut=    40.00 Ry     beta=0.70
     CG style diagonalization
     c_bands:  1 eigenvalues not converged
     ethr =  4.73E-05,  avg # of iterations =  3.5

     total cpu time spent up to now is      423.2 secs

     total energy              =   -2054.50460463 Ry
     Harris-Foulkes estimate   =   -2054.51139197 Ry
     estimated scf accuracy    <       0.03377192 Ry

     iteration # 10     ecut=    40.00 Ry     beta=0.70
     CG style diagonalization
     ethr =  1.80E-05,  avg # of iterations =  3.5

     total cpu time spent up to now is      430.2 secs

     total energy              =   -2054.50576859 Ry
     Harris-Foulkes estimate   =   -2054.50784255 Ry
     estimated scf accuracy    <       0.00564504 Ry

     iteration # 11     ecut=    40.00 Ry     beta=0.70
     CG style diagonalization
     c_bands:  1 eigenvalues not converged
     ethr =  3.00E-06,  avg # of iterations =  4.2

     total cpu time spent up to now is      440.5 secs

     total energy              =   -2054.50690746 Ry
     Harris-Foulkes estimate   =   -2054.50698413 Ry
     estimated scf accuracy    <       0.00017747 Ry

     iteration # 12     ecut=    40.00 Ry     beta=0.70
     CG style diagonalization
     c_bands:  1 eigenvalues not converged
     c_bands:  1 eigenvalues not converged
     c_bands:  1 eigenvalues not converged
     c_bands:  1 eigenvalues not converged
     ethr =  9.44E-08,  avg # of iterations =  5.6

     total cpu time spent up to now is      453.5 secs

     total energy              =   -2054.50700240 Ry
     Harris-Foulkes estimate   =   -2054.50703784 Ry
     estimated scf accuracy    <       0.00013411 Ry

     iteration # 13     ecut=    40.00 Ry     beta=0.70
     CG style diagonalization
     ethr =  7.13E-08,  avg # of iterations =  3.3

     total cpu time spent up to now is      459.8 secs

     End of self-consistent calculation

          k = 0.0000 0.0000 0.0000 (  3675 PWs)   bands (ev):

   -99.9564 -99.8990 -99.8736 -99.8487 -66.1799 -66.0641 -66.0307 -66.0227
   -65.8903 -65.8252 -65.8188 -65.8061 -65.3491 -65.2872 -65.2039 -65.1946
   -27.6031 -27.5723 -27.5646 -27.5398 -27.5134 -27.5022 -27.4005 -27.3968
    -9.6806  -9.5105  -9.3838  -9.3460  -9.3063  -9.1776  -9.1609  -9.1326
    -8.8931  -8.8302  -8.8285  -8.7750  -8.7732  -8.7591  -8.7462  -8.7237
    -8.7023  -8.6865  -8.6669  -8.6591  -8.6564  -8.6462  -8.6307  -8.6288
    -8.5273  -8.5247  -8.4812  -8.4811  -8.4702  -8.4413  -8.3855  -8.3710
    -8.3616  -8.3451  -8.3344  -8.3278  -8.3262  -8.2723  -8.2153  -8.0880
    -8.0368  -7.9177  -7.8903  -7.8331   1.9840   2.3919   2.3931   2.6020
     7.9347   8.2123   8.2584   8.2606   8.4464   8.8286   8.9192   9.0975
     9.1314   9.2668   9.3243   9.4366   9.7715   9.9945  10.0968  10.1165
    10.2473  10.2606  10.3153  10.7250  10.7343  10.7712  10.8983  10.9757
    11.2342  11.3569  11.4947  11.6662  11.7842  11.8761  11.9702  11.9780
    12.0380  12.0605  12.1633  12.2070  12.5235  12.5775  12.6321  12.6337
    12.6857

          k = 0.0000 0.0000 0.0842 (  3675 PWs)   bands (ev):

   -99.9562 -99.8933 -99.8816 -99.8614 -66.1656 -66.0857 -66.0781 -66.0442
   -65.8761 -65.8362 -65.8340 -65.7397 -65.3108 -65.2845 -65.2251 -65.1228
   -27.6076 -27.5877 -27.5551 -27.5284 -27.4960 -27.4876 -27.4340 -27.3762
    -9.5418  -9.5031  -9.4325  -9.3755  -9.3413  -9.3205  -9.1703  -9.1562
    -8.8925  -8.8717  -8.8293  -8.8047  -8.7864  -8.7500  -8.7443  -8.7396
    -8.7213  -8.7020  -8.6801  -8.6542  -8.6450  -8.6412  -8.6110  -8.5847
    -8.5564  -8.5159  -8.5126  -8.4586  -8.4486  -8.4292  -8.3979  -8.3848
    -8.3531  -8.3452  -8.3415  -8.3306  -8.3219  -8.2192  -8.1808  -8.0515
    -8.0373  -7.9945  -7.7528  -7.6876   2.0255   2.2633   2.4918   2.5916
     7.9612   8.1961   8.3248   8.3274   8.4190   8.6337   8.7499   8.9157
     9.1865   9.3385   9.3421   9.6219   9.8274   9.8855   9.9345  10.1761
    10.1856  10.2201  10.3313  10.5849  10.6007  10.8323  11.0319  11.4324
    11.4962  11.5677  11.6180  11.6499  11.8265  11.8583  11.9022  12.0941
    12.1256  12.1421  12.1812  12.2132  12.4893  12.4900  12.6071  12.6822
    12.6893

          k = 0.0000 0.0000-0.1684 (  3690 PWs)   bands (ev):

   -99.9541 -99.9541 -99.9030 -99.9030 -66.1617 -66.1617 -66.0928 -66.0928
   -65.8485 -65.8485 -65.8099 -65.8099 -65.2818 -65.2818 -65.1472 -65.1472
   -27.6273 -27.6273 -27.5390 -27.5390 -27.4970 -27.4970 -27.4093 -27.4093
    -9.6138  -9.6138  -9.4787  -9.4787  -9.3625  -9.3625  -9.3214  -9.3214
    -8.8846  -8.8846  -8.8230  -8.8230  -8.7831  -8.7831  -8.7285  -8.7285
    -8.6990  -8.6990  -8.6879  -8.6879  -8.6145  -8.6145  -8.6047  -8.6047
    -8.5266  -8.5266  -8.5002  -8.5002  -8.4814  -8.4814  -8.3794  -8.3794
    -8.3736  -8.3736  -8.3490  -8.3490  -8.1780  -8.1780  -8.1016  -8.1016
    -8.0488  -8.0488  -7.7699  -7.7699   2.1284   2.1284   2.5561   2.5561
     8.0597   8.0597   8.4401   8.4401   8.5117   8.5117   8.5875   8.5875
     9.2996   9.2996   9.5787   9.5787   9.7394   9.7394  10.0039  10.0039
    10.1529  10.1529  10.3954  10.3954  10.8441  10.8441  11.5144  11.5144
    11.6649  11.6649  11.6899  11.6899  11.8598  11.8598  12.0560  12.0560
    12.1598  12.1598  12.2250  12.2250  12.5406  12.5406  12.5826  12.5826
    12.9135

          k = 0.0000 0.1679 0.0000 (  3664 PWs)   bands (ev):

   -99.9418 -99.9040 -99.8425 -99.8259 -66.1207 -66.0811 -66.0428 -66.0412
   -65.8940 -65.8643 -65.7492 -65.7225 -65.3196 -65.2394 -65.1890 -65.1693
   -27.5785 -27.5730 -27.5395 -27.5359 -27.4902 -27.4336 -27.4302 -27.4106
    -9.5324  -9.5159  -9.3503  -9.3487  -9.3005  -9.2533  -9.2169  -9.0634
    -8.8816  -8.8013  -8.7725  -8.7586  -8.7400  -8.7085  -8.7054  -8.7031
    -8.6967  -8.6953  -8.6692  -8.6689  -8.6586  -8.6104  -8.5964  -8.5908
    -8.5203  -8.4923  -8.4861  -8.4716  -8.4540  -8.4435  -8.4295  -8.4023
    -8.3897  -8.3554  -8.3486  -8.3330  -8.3303  -8.2350  -8.1036  -8.0639
    -7.9926  -7.8943  -7.7452  -7.7176   2.1586   2.3908   2.4766   2.5620
     7.7358   7.7760   8.0591   8.3351   8.3976   8.6308   8.6333   8.8672
     9.0716   9.2142   9.3828   9.4252   9.9486  10.1131  10.1688  10.2713
    10.3444  10.4181  10.4192  10.6031  10.8434  10.8880  10.9528  11.0115
    11.1146  11.2967  11.5720  11.6832  11.7177  11.8746  11.8832  12.1124
    12.1234  12.2712  12.3066  12.3727  12.4624  12.5445  12.6611  12.6824
    12.7928

          k = 0.0000 0.1679 0.0842 (  3669 PWs)   bands (ev):

   -99.9363 -99.9207 -99.8656 -99.8369 -66.1186 -66.1023 -66.0777 -66.0553
   -65.8686 -65.8485 -65.8118 -65.7461 -65.2987 -65.2303 -65.1868 -65.1344
   -27.6060 -27.5811 -27.5288 -27.5203 -27.4991 -27.4388 -27.4316 -27.4149
    -9.5871  -9.4958  -9.4647  -9.3991  -9.3315  -9.2735  -9.2240  -9.1701
    -8.8704  -8.8286  -8.8147  -8.7558  -8.7423  -8.7226  -8.7032  -8.6962
    -8.6921  -8.6820  -8.6746  -8.6560  -8.6450  -8.6343  -8.5931  -8.5538
    -8.5445  -8.5210  -8.4969  -8.4720  -8.4591  -8.4379  -8.4242  -8.4139
    -8.4049  -8.3639  -8.3482  -8.3244  -8.2932  -8.2140  -8.1122  -8.0575
    -7.9210  -7.8684  -7.8028  -7.6791   2.1890   2.3474   2.4990   2.5551
     7.7123   7.8052   7.9512   8.3874   8.4113   8.5560   8.6138   8.7689
     9.0528   9.2639   9.2957   9.4662  10.0869  10.1635  10.1737  10.2431
    10.3125  10.3926  10.5734  10.6386  10.7669  10.8679  10.9276  11.2305
    11.2482  11.2949  11.5417  11.7089  11.7704  11.8843  11.9913  12.0468
    12.0608  12.2337  12.3513  12.4078  12.4312  12.6048  12.6780  12.7472
    12.8625

          k = 0.0000 0.1679-0.1684 (  3666 PWs)   bands (ev):

   -99.8960 -99.8960 -99.8721 -99.8721 -66.0998 -66.0998 -66.0725 -66.0725
   -65.8421 -65.8421 -65.7828 -65.7828 -65.2556 -65.2556 -65.1752 -65.1752
   -27.5794 -27.5794 -27.5133 -27.5133 -27.4756 -27.4756 -27.4325 -27.4325
    -9.4979  -9.4979  -9.4137  -9.4137  -9.3332  -9.3332  -9.1883  -9.1883
    -8.8534  -8.8534  -8.7802  -8.7802  -8.7133  -8.7133  -8.7069  -8.7069
    -8.7010  -8.7010  -8.6458  -8.6458  -8.5895  -8.5895  -8.5553  -8.5553
    -8.5196  -8.5196  -8.5046  -8.5046  -8.4526  -8.4526  -8.4204  -8.4204
    -8.3792  -8.3792  -8.3448  -8.3448  -8.2183  -8.2183  -8.1371  -8.1371
    -7.9157  -7.9157  -7.7207  -7.7207   2.2651   2.2651   2.5327   2.5327
     7.7355   7.7355   8.0791   8.0791   8.5130   8.5130   8.7148   8.7148
     9.1290   9.1290   9.3526   9.3526  10.0947  10.0947  10.2898  10.2898
    10.4041  10.4041  10.5724  10.5724  10.8384  10.8384  11.1687  11.1687
    11.4918  11.4918  11.5660  11.5660  11.8399  11.8399  11.9995  11.9995
    12.0475  12.0475  12.3443  12.3443  12.4926  12.4926  12.8022  12.8022
    13.2558

          k =-0.3045 0.0000 0.0000 (  3722 PWs)   bands (ev):

   -99.9818 -99.9818 -99.9480 -99.9480 -66.1152 -66.1152 -66.0894 -66.0894
   -65.8934 -65.8934 -65.8805 -65.8805 -65.4708 -65.4708 -65.3713 -65.3713
   -27.6175 -27.6175 -27.5808 -27.5808 -27.5442 -27.5442 -27.5386 -27.5386
    -9.5328  -9.5328  -9.5192  -9.5192  -9.5033  -9.5033  -9.2577  -9.2577
    -8.9300  -8.9300  -8.8514  -8.8514  -8.8002  -8.8002  -8.7715  -8.7715
    -8.7325  -8.7325  -8.6933  -8.6933  -8.6232  -8.6232  -8.6092  -8.6092
    -8.5441  -8.5441  -8.5434  -8.5434  -8.4579  -8.4579  -8.4555  -8.4555
    -8.4502  -8.4502  -8.3867  -8.3867  -8.3662  -8.3662  -8.3285  -8.3285
    -8.2703  -8.2703  -8.2643  -8.2643   2.3308   2.3308   2.4510   2.4510
     7.8819   7.8819   8.4624   8.4624   8.6881   8.6881   8.9079   8.9079
     9.4076   9.4076   9.6395   9.6395   9.9259   9.9259   9.9492   9.9492
    10.3226  10.3226  10.5793  10.5793  10.6818  10.6818  11.0984  11.0984
    11.2021  11.2021  11.4439  11.4439  11.6495  11.6495  11.8019  11.8019
    11.8702  11.8702  11.9764  11.9764  12.2354  12.2354  12.3192  12.3192
    12.9483

          k =-0.3045 0.0000 0.0842 (  3710 PWs)   bands (ev):

   -99.9550 -99.9550 -99.9395 -99.9395 -66.1155 -66.1155 -66.0881 -66.0881
   -65.8722 -65.8722 -65.8321 -65.8321 -65.4353 -65.4353 -65.3480 -65.3480
   -27.5993 -27.5993 -27.5759 -27.5759 -27.5395 -27.5395 -27.5072 -27.5072
    -9.5346  -9.5346  -9.4867  -9.4867  -9.3849  -9.3849  -9.2800  -9.2800
    -8.9308  -8.9308  -8.8224  -8.8224  -8.7946  -8.7946  -8.7503  -8.7503
    -8.7241  -8.7241  -8.6649  -8.6649  -8.6134  -8.6134  -8.5877  -8.5877
    -8.5524  -8.5524  -8.5206  -8.5206  -8.4557  -8.4557  -8.4422  -8.4422
    -8.4277  -8.4277  -8.3703  -8.3703  -8.3385  -8.3385  -8.2750  -8.2750
    -8.2464  -8.2464  -8.1849  -8.1849   2.3358   2.3358   2.4498   2.4498
     7.7641   7.7641   8.6719   8.6719   8.6904   8.6904   8.9212   8.9212
     9.3649   9.3649   9.4495   9.4495   9.8080   9.8080  10.1397  10.1397
    10.2918  10.2918  10.5467  10.5467  10.7276  10.7276  11.0555  11.0555
    11.3209  11.3209  11.5311  11.5311  11.6570  11.6570  11.8819  11.8819
    11.9116  11.9116  11.9751  11.9751  12.2337  12.2337  12.4179  12.4179
    12.8795

          k =-0.3045 0.0000-0.1684 (  3680 PWs)   bands (ev):

   -99.9226 -99.9226 -99.8794 -99.8794 -66.0993 -66.0993 -66.0904 -66.0904
   -65.8182 -65.8182 -65.7399 -65.7399 -65.3576 -65.3576 -65.3130 -65.3130
   -27.5592 -27.5592 -27.5434 -27.5434 -27.4960 -27.4960 -27.4882 -27.4882
    -9.4228  -9.4228  -9.3998  -9.3998  -9.3954  -9.3954  -9.1470  -9.1470
    -8.9243  -8.9243  -8.7961  -8.7961  -8.7601  -8.7601  -8.7025  -8.7025
    -8.6947  -8.6947  -8.6243  -8.6243  -8.6032  -8.6032  -8.5738  -8.5738
    -8.5254  -8.5254  -8.4503  -8.4503  -8.4324  -8.4324  -8.4278  -8.4278
    -8.4150  -8.4150  -8.3324  -8.3324  -8.2427  -8.2427  -8.1846  -8.1846
    -8.1497  -8.1497  -8.0232  -8.0232   2.3419   2.3419   2.4488   2.4488
     7.6849   7.6849   8.6850   8.6850   8.9162   8.9162   9.0079   9.0079
     9.1202   9.1202   9.4452   9.4452   9.6419   9.6419  10.2188  10.2188
    10.4417  10.4417  10.4560  10.4560  10.7213  10.7213  11.0542  11.0542
    11.4149  11.4149  11.5135  11.5135  11.7408  11.7408  11.8160  11.8160
    11.9586  11.9586  12.1020  12.1020  12.4173  12.4173  12.4522  12.4522
    12.9029

          k =-0.3045 0.1679 0.0000 (  3686 PWs)   bands (ev):

   -99.9088 -99.9088 -99.8942 -99.8942 -66.0728 -66.0728 -66.0687 -66.0687
   -65.8419 -65.8419 -65.8058 -65.8058 -65.4543 -65.4543 -65.3671 -65.3671
   -27.5734 -27.5734 -27.5604 -27.5604 -27.5188 -27.5188 -27.5049 -27.5049
    -9.4566  -9.4566  -9.3715  -9.3715  -9.2552  -9.2552  -9.2451  -9.2451
    -8.8366  -8.8366  -8.8236  -8.8236  -8.7833  -8.7833  -8.7032  -8.7032
    -8.6587  -8.6587  -8.6468  -8.6468  -8.5804  -8.5804  -8.5792  -8.5792
    -8.5402  -8.5402  -8.5364  -8.5364  -8.4700  -8.4700  -8.4348  -8.4348
    -8.4177  -8.4177  -8.4026  -8.4026  -8.3205  -8.3205  -8.2634  -8.2634
    -8.2301  -8.2301  -8.1895  -8.1895   2.4193   2.4193   2.4829   2.4829
     7.9034   7.9034   7.9674   7.9674   8.7485   8.7485   8.9165   8.9165
     8.9853   8.9853   9.2353   9.2353  10.2331  10.2331  10.4412  10.4412
    10.4791  10.4791  10.6547  10.6547  10.8266  10.8266  10.8590  10.8590
    11.1421  11.1421  11.3659  11.3659  11.4826  11.4826  11.8929  11.8929
    12.0732  12.0732  12.1115  12.1115  12.2917  12.2917  12.4912  12.4912
    12.9429

          k =-0.3045 0.1679 0.0842 (  3692 PWs)   bands (ev):

   -99.9534 -99.9534 -99.8785 -99.8785 -66.1326 -66.1326 -66.0615 -66.0615
   -65.8386 -65.8386 -65.8060 -65.8060 -65.3893 -65.3893 -65.3676 -65.3676
   -27.5780 -27.5780 -27.5666 -27.5666 -27.5137 -27.5137 -27.5040 -27.5040
    -9.5271  -9.5271  -9.4335  -9.4335  -9.3380  -9.3380  -9.2065  -9.2065
    -8.8684  -8.8684  -8.8074  -8.8074  -8.7872  -8.7872  -8.7044  -8.7044
    -8.6911  -8.6911  -8.6591  -8.6591  -8.6297  -8.6297  -8.5668  -8.5668
    -8.5507  -8.5507  -8.5062  -8.5062  -8.4894  -8.4894  -8.4501  -8.4501
    -8.4172  -8.4172  -8.3948  -8.3948  -8.3225  -8.3225  -8.2668  -8.2668
    -8.1468  -8.1468  -8.0882  -8.0882   2.4221   2.4221   2.4818   2.4818
     7.7651   7.7651   8.0474   8.0474   8.7177   8.7177   8.8467   8.8467
     9.1148   9.1148   9.2681   9.2681  10.1059  10.1059  10.3390  10.3390
    10.5121  10.5121  10.6857  10.6857  10.8118  10.8118  11.0249  11.0249
    11.1846  11.1846  11.4652  11.4652  11.5917  11.5917  11.8359  11.8359
    11.9914  11.9914  12.2057  12.2057  12.3101  12.3101  12.5553  12.5553
    12.8417

          k =-0.3045 0.1679-0.1684 (  3704 PWs)   bands (ev):

   -99.9851 -99.9851 -99.8933 -99.8933 -66.1642 -66.1642 -66.0978 -66.0978
   -65.8489 -65.8489 -65.7669 -65.7669 -65.3922 -65.3922 -65.3869 -65.3869
   -27.5869 -27.5869 -27.5833 -27.5833 -27.5293 -27.5293 -27.5020 -27.5020
    -9.5849  -9.5849  -9.5251  -9.5251  -9.3378  -9.3378  -9.2972  -9.2972
    -8.8867  -8.8867  -8.8308  -8.8308  -8.7821  -8.7821  -8.7207  -8.7207
    -8.7153  -8.7153  -8.6635  -8.6635  -8.6456  -8.6456  -8.5810  -8.5810
    -8.5613  -8.5613  -8.5152  -8.5152  -8.4746  -8.4746  -8.4627  -8.4627
    -8.4293  -8.4293  -8.4272  -8.4272  -8.3083  -8.3083  -8.3028  -8.3028
    -8.1565  -8.1565  -8.0251  -8.0251   2.4249   2.4249   2.4806   2.4806
     7.6855   7.6855   8.0687   8.0687   8.6529   8.6529   8.8939   8.8939
     9.1807   9.1807   9.2873   9.2873   9.9914   9.9914  10.2923  10.2923
    10.4904  10.4904  10.7648  10.7648  10.7900  10.7900  11.1217  11.1217
    11.2304  11.2304  11.5673  11.5673  11.6826  11.6826  11.9096  11.9096
    11.9952  11.9952  12.2241  12.2241  12.2812  12.2812  12.5378  12.5378
    12.7188

     the Fermi energy is    10.8998 ev

!    total energy              =   -2054.50700593 Ry
     Harris-Foulkes estimate   =   -2054.50701598 Ry
     estimated scf accuracy    <       0.00001131 Ry

     The total energy is the sum of the following terms:

     one-electron contribution =    -999.53482200 Ry
     hartree contribution      =     508.75064742 Ry
     xc contribution           =    -189.66151057 Ry
     ewald contribution        =   -1372.89921476 Ry
     smearing contrib. (-TS)   =      -1.16210602 Ry

     convergence has been achieved in  13 iterations

     Forces acting on atoms (Ry/au):

     atom    1 type  1   force =     0.00000000   -0.00071342    0.00405839
     atom    2 type  1   force =     0.00000000    0.00071342   -0.00405839
     atom    3 type  1   force =     0.00000000   -0.00071342   -0.00405839
     atom    4 type  1   force =     0.00000000    0.00071342    0.00405839
     atom    5 type  1   force =     0.00000000    0.00293882    0.00181450
     atom    6 type  1   force =     0.00000000   -0.00293882   -0.00181450
     atom    7 type  1   force =     0.00000000    0.00293882   -0.00181450
     atom    8 type  1   force =     0.00000000   -0.00293882    0.00181450
     atom    9 type  2   force =     0.00000000    0.00264451   -0.00040536
     atom   10 type  2   force =     0.00000000   -0.00264451    0.00040536
     atom   11 type  2   force =     0.00000000    0.00264451    0.00040536
     atom   12 type  2   force =     0.00000000   -0.00264451   -0.00040536

     Total force =     0.012011     Total SCF correction =     0.000000


     entering subroutine stress ...

          total   stress  (Ry/bohr**3)                   (kbar)     P=-2791.84
  -0.02118915   0.00000000   0.00000000      -3117.03      0.00      0.00
   0.00000000  -0.01712028   0.00000000          0.00  -2518.48      0.00
   0.00000000   0.00000000  -0.01862618          0.00      0.00  -2740.00


     number of scf cycles    =   3
     number of bfgs steps    =   2

     enthalpy old            =   -2078.0739205934 Ry
     enthalpy new            =   -2054.5070059296 Ry

     CASE: enthalpy_new > enthalpy_old

     new trust radius        =       1.0609845882 bohr

     trust_radius < trust_radius_min

     resetting bfgs history

     Message from routine bfgs:
     history already reset at previous step: stopping
     new conv_thr            =       0.0001000000 Ry

     new unit-cell volume =   1264.08624 a.u.^3 (   187.31825 Ang^3 )

CELL_PARAMETERS (alat=  7.01510508)
   1.156145353   0.000000000   0.000000000
   0.000000000   1.472192076   0.000000000
   0.000000000   0.000000000   2.151281535

ATOMIC_POSITIONS (crystal)
Co       0.750000000   0.825383244   0.435020647
Co       0.250000000   0.174616756   0.564979353
Co       0.750000000   0.325383244   0.064979353
Co       0.250000000   0.674616756   0.935020647
Co       0.250000000   0.539686793   0.279596459
Co       0.750000000   0.460313207   0.720403541
Co       0.250000000   0.039686793   0.220403541
Co       0.750000000   0.960313207   0.779596459
Si       0.250000000   0.200293090   0.893492627
Si       0.750000000   0.799706910   0.106507373
Si       0.250000000   0.700293090   0.606507373
Si       0.750000000   0.299706910   0.393492627



     Writing output data file Prototype-La-oP12-Co2Si.save
     NEW-OLD atomic charge density approx. for the potential
     NEW k-points:
        k(    1) = (   0.0000000   0.0000000   0.0000000), wk =   0.0833333
        k(    2) = (   0.0000000   0.0000000   0.1162098), wk =   0.1666667
        k(    3) = (   0.0000000   0.0000000  -0.2324196), wk =   0.0833333
        k(    4) = (   0.0000000   0.2264197   0.0000000), wk =   0.1666667
        k(    5) = (   0.0000000   0.2264197   0.1162098), wk =   0.3333333
        k(    6) = (   0.0000000   0.2264197  -0.2324196), wk =   0.1666667
        k(    7) = (  -0.4324716   0.0000000   0.0000000), wk =   0.0833333
        k(    8) = (  -0.4324716   0.0000000   0.1162098), wk =   0.1666667
        k(    9) = (  -0.4324716   0.0000000  -0.2324196), wk =   0.0833333
        k(   10) = (  -0.4324716   0.2264197   0.0000000), wk =   0.1666667
        k(   11) = (  -0.4324716   0.2264197   0.1162098), wk =   0.3333333
        k(   12) = (  -0.4324716   0.2264197  -0.2324196), wk =   0.1666667

     total cpu time spent up to now is      465.1 secs

     Self-consistent Calculation

     iteration #  1     ecut=    40.00 Ry     beta=0.70
     CG style diagonalization
     c_bands:  1 eigenvalues not converged
     c_bands:  3 eigenvalues not converged
     c_bands:  1 eigenvalues not converged
     c_bands:  1 eigenvalues not converged
     c_bands:  1 eigenvalues not converged
     c_bands:  1 eigenvalues not converged
     c_bands:  1 eigenvalues not converged
     c_bands:  1 eigenvalues not converged
     ethr =  1.00E-06,  avg # of iterations = 35.7

     total cpu time spent up to now is      532.3 secs

     total energy              =   -1923.27376346 Ry
     Harris-Foulkes estimate   =   -2279.45519209 Ry
     estimated scf accuracy    <     435.41384312 Ry

     iteration #  2     ecut=    40.00 Ry     beta=0.70
     CG style diagonalization
     c_bands:  2 eigenvalues not converged
     ethr =  1.00E-02,  avg # of iterations = 10.0

     total cpu time spent up to now is      552.2 secs

     total energy              =   -1995.36530668 Ry
     Harris-Foulkes estimate   =   -2154.86764180 Ry
     estimated scf accuracy    <     264.58142159 Ry

     iteration #  3     ecut=    40.00 Ry     beta=0.70
     CG style diagonalization
     c_bands:  1 eigenvalues not converged
     ethr =  1.00E-02,  avg # of iterations =  7.2

     total cpu time spent up to now is      566.9 secs

     total energy              =   -2073.50516887 Ry
     Harris-Foulkes estimate   =   -2088.12143615 Ry
     estimated scf accuracy    <      28.47514063 Ry

     iteration #  4     ecut=    40.00 Ry     beta=0.70
     CG style diagonalization
     ethr =  1.00E-02,  avg # of iterations =  3.9

     total cpu time spent up to now is      574.5 secs

     total energy              =   -2079.28906957 Ry
     Harris-Foulkes estimate   =   -2081.15698759 Ry
     estimated scf accuracy    <       3.54453573 Ry

     iteration #  5     ecut=    40.00 Ry     beta=0.70
     CG style diagonalization
     ethr =  1.89E-03,  avg # of iterations =  3.9

     total cpu time spent up to now is      581.9 secs

     total energy              =   -2080.17081106 Ry
     Harris-Foulkes estimate   =   -2080.32765773 Ry
     estimated scf accuracy    <       0.27199074 Ry

     iteration #  6     ecut=    40.00 Ry     beta=0.70
     CG style diagonalization
     c_bands:  2 eigenvalues not converged
     c_bands:  2 eigenvalues not converged
     c_bands:  1 eigenvalues not converged
     c_bands:  1 eigenvalues not converged
     ethr =  1.45E-04,  avg # of iterations =  4.7

     total cpu time spent up to now is      594.1 secs

     total energy              =   -2080.26372756 Ry
     Harris-Foulkes estimate   =   -2080.34988401 Ry
     estimated scf accuracy    <       0.18348734 Ry

     iteration #  7     ecut=    40.00 Ry     beta=0.70
     CG style diagonalization
     ethr =  9.76E-05,  avg # of iterations =  3.4

     total cpu time spent up to now is      601.8 secs

     total energy              =   -2080.30379920 Ry
     Harris-Foulkes estimate   =   -2080.30920051 Ry
     estimated scf accuracy    <       0.01060934 Ry

     iteration #  8     ecut=    40.00 Ry     beta=0.70
     CG style diagonalization
     c_bands:  1 eigenvalues not converged
     c_bands:  1 eigenvalues not converged
     c_bands:  1 eigenvalues not converged
     c_bands:  1 eigenvalues not converged
     ethr =  5.64E-06,  avg # of iterations =  4.4

     total cpu time spent up to now is      611.0 secs

     total energy              =   -2080.30644731 Ry
     Harris-Foulkes estimate   =   -2080.30717528 Ry
     estimated scf accuracy    <       0.00127007 Ry

     iteration #  9     ecut=    40.00 Ry     beta=0.70
     CG style diagonalization
     c_bands:  1 eigenvalues not converged
     ethr =  6.76E-07,  avg # of iterations =  4.3

     total cpu time spent up to now is      619.2 secs

     total energy              =   -2080.30696186 Ry
     Harris-Foulkes estimate   =   -2080.30707881 Ry
     estimated scf accuracy    <       0.00023715 Ry

     iteration # 10     ecut=    40.00 Ry     beta=0.70
     CG style diagonalization
     ethr =  1.26E-07,  avg # of iterations =  3.6

     total cpu time spent up to now is      626.2 secs

     End of self-consistent calculation

          k = 0.0000 0.0000 0.0000 (  3675 PWs)   bands (ev):

   -78.1849 -78.1486 -78.1445 -78.1051 -38.1138 -38.1092 -38.1081 -38.1057
   -38.1039 -38.1020 -38.0976 -38.0806 -38.0644 -38.0617 -38.0585 -38.0405
    -6.4869  -5.8233  -5.5535  -5.1762  -5.0437  -4.7954  -4.7434  -4.7412
     8.3614   8.3764   8.6601   8.9388   9.2420   9.3693   9.4003   9.4713
     9.5149   9.7413   9.8549   9.9726  10.0146  10.0886  10.2562  10.4197
    10.4979  10.5079  10.5328  10.6372  10.6745  10.8110  11.1309  11.3100
    11.7479  11.8784  12.2568  12.4953  12.7548  12.8634  12.9381  12.9537
    13.0384  13.0835  13.6306  13.8167  13.9683  13.9836  14.0517  14.1104
    14.1610  14.9153  15.2067  15.2499  21.3464  21.8813  22.7929  23.4829
    25.6957  26.3950  27.2882  27.7405  28.1025  28.1144  28.4528  29.0302
    29.1769  29.3998  29.4238  29.6295  29.9853  30.2290  30.4319  30.6553
    31.4560  31.4574  32.3683  32.6550  33.0506  33.5622  33.8956  34.1004
    34.3197  34.4527  34.6644  35.0751  35.3094  35.3448  35.3502  35.3527
    35.3760  36.6314  36.6609  36.6622  37.4925  37.5834  37.6648  38.1477
    38.9006

          k = 0.0000 0.0000 0.1162 (  3675 PWs)   bands (ev):

   -78.2014 -78.1435 -78.1369 -78.0977 -38.1172 -38.1111 -38.1067 -38.1026
   -38.1015 -38.0950 -38.0937 -38.0900 -38.0729 -38.0659 -38.0510 -38.0414
    -6.4275  -6.0176  -5.3649  -5.1730  -5.0375  -4.8127  -4.7877  -4.7465
     8.4005   8.5037   8.7199   9.0053   9.0126   9.1745   9.4153   9.4406
     9.7843   9.7941   9.9177   9.9444  10.0091  10.0428  10.3957  10.4084
    10.4155  10.5954  10.6014  10.6411  10.8093  10.8467  11.0946  11.1852
    11.6538  11.7551  12.0906  12.1012  12.1949  12.4959  13.2102  13.2151
    13.4035  13.5170  13.7222  13.8160  13.8412  13.9427  14.0806  14.0919
    14.2669  14.8013  15.2280  15.2305  21.7448  22.0069  22.7853  23.3769
    25.8888  26.6429  26.9948  27.9702  28.0592  28.0998  28.7188  28.8170
    28.8939  29.0899  29.3016  29.4828  29.6851  30.2730  30.3581  30.3661
    31.3980  31.4972  31.6602  32.2134  33.1743  33.4953  33.8339  34.1316
    34.2120  34.2461  34.6234  34.9242  34.9814  36.1356  36.2039  36.3404
    36.4470  36.8683  36.9222  36.9460  37.2189  37.3161  37.9674  38.0533
    39.0460

          k = 0.0000 0.0000-0.2324 (  3690 PWs)   bands (ev):

[...]

     total energy              =   -2082.51044724 Ry
     Harris-Foulkes estimate   =   -2083.68087271 Ry
     estimated scf accuracy    <       1.98429853 Ry

     iteration #  6     ecut=    40.00 Ry     beta=0.70
     CG style diagonalization
     ethr =  1.06E-03,  avg # of iterations =  4.7

     total cpu time spent up to now is      908.8 secs

     total energy              =   -2083.24760878 Ry
     Harris-Foulkes estimate   =   -2083.35155168 Ry
     estimated scf accuracy    <       0.22131686 Ry

     iteration #  7     ecut=    40.00 Ry     beta=0.70
     CG style diagonalization
     c_bands:  1 eigenvalues not converged
     c_bands:  1 eigenvalues not converged
     c_bands:  1 eigenvalues not converged
     c_bands:  1 eigenvalues not converged
     c_bands:  1 eigenvalues not converged
     ethr =  1.18E-04,  avg # of iterations =  4.5

     total cpu time spent up to now is      926.1 secs

     total energy              =   -2083.30279573 Ry
     Harris-Foulkes estimate   =   -2083.33693471 Ry
     estimated scf accuracy    <       0.07815774 Ry

     iteration #  8     ecut=    40.00 Ry     beta=0.70
     CG style diagonalization
     c_bands:  1 eigenvalues not converged
     ethr =  4.16E-05,  avg # of iterations =  3.4

     total cpu time spent up to now is      939.1 secs

     total energy              =   -2083.30253082 Ry
     Harris-Foulkes estimate   =   -2083.31385282 Ry
     estimated scf accuracy    <       0.02024228 Ry

     iteration #  9     ecut=    40.00 Ry     beta=0.70
     CG style diagonalization
     c_bands:  1 eigenvalues not converged
     ethr =  1.08E-05,  avg # of iterations =  4.3

     total cpu time spent up to now is      956.3 secs

     total energy              =   -2083.30867784 Ry
     Harris-Foulkes estimate   =   -2083.30893834 Ry
     estimated scf accuracy    <       0.00063755 Ry

     iteration # 10     ecut=    40.00 Ry     beta=0.70
     CG style diagonalization
     ethr =  3.39E-07,  avg # of iterations =  4.9

     total cpu time spent up to now is      975.8 secs

     total energy              =   -2083.30893155 Ry
     Harris-Foulkes estimate   =   -2083.30935483 Ry
     estimated scf accuracy    <       0.00073735 Ry

     iteration # 11     ecut=    40.00 Ry     beta=0.70
     CG style diagonalization
     ethr =  3.39E-07,  avg # of iterations =  3.8

     total cpu time spent up to now is      988.7 secs

     End of self-consistent calculation

          k = 0.0000 0.0000 0.0000 (  5423 PWs)   bands (ev):

   -79.2837 -79.2696 -79.2365 -79.2317 -38.0465 -38.0360 -38.0337 -38.0257
   -38.0253 -38.0249 -38.0244 -38.0084 -37.9764 -37.9716 -37.9715 -37.9669
    -6.4828  -5.8167  -5.5411  -5.1623  -5.0294  -4.7845  -4.7309  -4.7277
     8.3592   8.3763   8.7049   8.9985   9.2951   9.4416   9.4467   9.4578
     9.5709   9.8243   9.9195   9.9214  10.0956  10.1809  10.3444  10.5263
    10.6230  10.6700  10.6780  10.7512  10.8181  10.8315  11.2012  11.3221
    11.8001  11.8428  12.2573  12.4351  12.7406  12.8431  12.8947  12.9435
    13.0078  13.0272  13.5788  13.8032  13.8959  13.9384  14.0040  14.0829
    14.0997  14.8667  15.1379  15.1563  21.0995  21.6625  22.5130  23.2187
    25.6626  26.3540  27.2510  27.6998  28.0711  28.0804  28.4047  28.9814
    29.1161  29.3496  29.3616  29.5768  29.9228  30.1575  30.3671  30.5794
    31.3925  31.3970  32.2684  32.5739  32.9793  33.4804  33.8171  33.9516
    34.2193  34.3626  34.5774  34.9946  35.2246  35.2486  35.2496  35.2578
    35.2653  36.4901  36.5616  36.5779  37.2483  37.4335  37.5117  38.0663
    38.5089

          k = 0.0000 0.0000 0.1162 (  5408 PWs)   bands (ev):

   -79.2732 -79.2557 -79.2393 -79.2280 -38.0444 -38.0307 -38.0304 -38.0252
   -38.0246 -38.0243 -38.0120 -38.0100 -37.9764 -37.9737 -37.9624 -37.9609
    -6.4226  -6.0106  -5.3519  -5.1591  -5.0234  -4.7994  -4.7762  -4.7341
     8.3845   8.5148   8.7598   9.0242   9.0753   9.2127   9.4805   9.4810
     9.8616   9.8649   9.9710  10.0098  10.0179  10.1161  10.5145  10.5217
    10.5487  10.7049  10.7572  10.7927  10.8765  10.9016  11.1540  11.1738
    11.6969  11.7152  12.0937  12.1012  12.1838  12.4389  13.1400  13.1635
    13.3742  13.5098  13.6586  13.7951  13.8042  13.8790  14.0204  14.0419
    14.2395  14.7554  15.1425  15.1565  21.4987  21.7814  22.5225  23.1273
    25.8560  26.5966  26.9610  27.9354  28.0249  28.0656  28.6675  28.7715
    28.8419  29.0360  29.2296  29.4310  29.6287  30.2059  30.2851  30.3125
    31.3269  31.4142  31.5737  32.1429  33.0938  33.4025  33.7380  34.0439
    34.1110  34.1464  34.5177  34.8454  34.8993  36.0214  36.0947  36.2330
    36.3463  36.7925  36.8215  36.8519  36.9936  37.1808  37.8227  37.8625
    38.7234

          k = 0.0000 0.0000-0.2324 (  5402 PWs)   bands (ev):

   -79.2574 -79.2574 -79.2361 -79.2361 -38.0315 -38.0315 -38.0269 -38.0268
   -38.0169 -38.0169 -38.0144 -38.0144 -37.9776 -37.9776 -37.9649 -37.9649
    -6.2540  -6.2540  -5.1809  -5.1809  -4.9497  -4.9497  -4.7556  -4.7556
     8.4956   8.4956   8.9319   8.9319   9.2683   9.2683   9.2890   9.2890
     9.7553   9.7553   9.9585   9.9585  10.3638  10.3638  10.4788  10.4788
    10.6769  10.6769  10.7699  10.7699  10.9689  10.9689  11.4040  11.4040
    11.4129  11.4129  11.6057  11.6057  12.2333  12.2333  13.3998  13.3998
    13.4424  13.4424  13.7243  13.7243  13.8600  13.8600  14.1089  14.1089
    14.4850  14.4850  15.1394  15.1394  21.9546  21.9546  22.7277  22.7278
    26.3681  26.3681  27.3998  27.3998  28.0108  28.0108  28.5837  28.5837
    28.8185  28.8185  29.3395  29.3395  29.7556  29.7556  29.9810  29.9810
    31.4668  31.4668  31.7650  31.7650  32.8584  32.8584  33.4694  33.4694
    34.1711  34.1711  35.0986  35.0987  35.7348  35.7348  36.5739  36.5741
    36.9980  36.9980  37.1099  37.1100  37.3232  37.3232  38.1377  38.1378
    38.6947

          k = 0.0000 0.2264 0.0000 (  5399 PWs)   bands (ev):

   -79.2714 -79.2523 -79.2512 -79.2119 -38.0403 -38.0355 -38.0283 -38.0227
   -38.0210 -38.0207 -38.0125 -38.0063 -37.9750 -37.9702 -37.9669 -37.9579
    -6.2381  -5.6988  -5.6090  -5.3586  -5.1182  -5.0113  -4.6424  -4.6268
     8.4523   8.5865   8.6913   8.7820   8.9358   8.9730   9.5173   9.5525
     9.6652   9.7969   9.8658   9.9616   9.9989  10.1342  10.1648  10.4480
    10.4530  10.6325  10.6921  10.7491  10.9317  11.1279  11.2185  11.3995
    11.8603  12.2243  12.3546  12.7914  12.8226  12.8492  12.9337  13.0164
    13.4562  13.5401  13.6298  13.6319  13.6931  13.7172  13.9426  14.1020
    14.2270  14.4946  14.5253  14.8807  21.9416  22.7384  23.0178  23.7530
    26.2179  26.2522  26.7853  27.2821  27.2879  27.4722  28.1923  28.2084
    28.4768  28.7617  29.0471  29.9440  30.4498  30.4509  30.6112  30.8440
    30.9141  31.2353  31.7909  31.9770  32.1936  32.4102  33.1260  33.4350
    33.8379  33.8534  34.4368  34.9526  34.9827  35.2726  35.7678  36.1113
    36.2833  36.4950  36.7421  36.9111  37.1971  37.6047  38.0112  38.0426
    38.3320

          k = 0.0000 0.2264 0.1162 (  5382 PWs)   bands (ev):

   -79.2579 -79.2516 -79.2346 -79.2116 -38.0331 -38.0291 -38.0273 -38.0252
   -38.0234 -38.0126 -38.0091 -38.0065 -37.9723 -37.9658 -37.9570 -37.9532
    -6.1847  -5.8319  -5.5761  -5.3636  -5.0782  -4.9178  -4.6960  -4.6567
     8.5975   8.6178   8.7019   8.7319   8.9258   9.1232   9.4571   9.5077
     9.5258   9.6843   9.9329  10.0131  10.0709  10.1894  10.2380  10.3839
    10.5266  10.6544  10.7347  10.8138  10.9180  11.1223  11.3098  11.4751
    11.5836  12.0059  12.2706  12.4065  12.4787  12.6309  12.9427  13.0150
    13.3300  13.6430  13.6490  13.7653  13.8548  13.8633  14.1746  14.2678
    14.3645  14.5259  14.6455  14.7947  22.1551  22.7237  23.2103  23.7413
    26.0378  26.3741  26.6577  27.1869  27.1918  27.4256  28.1320  28.3675
    28.5254  28.7745  29.0483  29.5265  30.0661  30.2298  30.6438  30.9150
    30.9661  31.1260  31.7311  32.3841  32.4368  32.5124  33.1833  33.4837
    33.6603  34.1051  34.2576  34.4892  34.6052  35.0974  35.7606  36.2103
    36.2933  36.5233  36.5696  37.3816  37.5281  37.6027  37.9796  38.2731
    38.9768

          k = 0.0000 0.2264-0.2324 (  5406 PWs)   bands (ev):

   -79.2576 -79.2576 -79.2437 -79.2437 -38.0325 -38.0324 -38.0270 -38.0270
   -38.0249 -38.0249 -38.0224 -38.0224 -37.9674 -37.9674 -37.9642 -37.9642
    -6.0362  -6.0362  -5.4782  -5.4782  -4.9068  -4.9068  -4.7340  -4.7340
     8.6816   8.6816   8.7241   8.7241   9.1362   9.1362   9.4043   9.4043
     9.4603   9.4603  10.0461  10.0462  10.0728  10.0729  10.4032  10.4032
    10.7382  10.7382  10.7462  10.7462  11.1038  11.1038  11.3334  11.3334
    11.7698  11.7698  11.8035  11.8035  12.6718  12.6718  12.7488  12.7488
    13.5259  13.5259  13.8326  13.8326  13.8765  13.8765  14.3853  14.3853
    14.6127  14.6127  14.6633  14.6633  22.5575  22.5575  23.5499  23.5499
    26.0399  26.0399  26.7219  26.7219  27.5533  27.5533  28.3007  28.3007
    28.5314  28.5314  29.3512  29.3512  29.8398  29.8398  30.4363  30.4363
    31.1665  31.1665  31.9879  31.9879  32.9503  32.9503  33.0762  33.0762
    33.7627  33.7627  34.8239  34.8239  34.8515  34.8515  35.5339  35.5340
    36.6078  36.6078  36.6228  36.6229  37.4400  37.4401  38.7465  38.7469
    39.2974

          k =-0.4325 0.0000 0.0000 (  5460 PWs)   bands (ev):

   -79.2880 -79.2880 -79.2674 -79.2674 -38.0486 -38.0486 -38.0415 -38.0415
   -38.0364 -38.0364 -38.0278 -38.0278 -37.9795 -37.9795 -37.9784 -37.9784
    -5.8781  -5.8781  -5.3250  -5.3250  -5.1804  -5.1804  -4.7601  -4.7601
     8.6927   8.6927   9.2256   9.2256   9.2681   9.2681   9.6615   9.6615
     9.7797   9.7797   9.9792   9.9792  10.2733  10.2733  10.3341  10.3341
    10.4585  10.4585  10.6587  10.6587  10.8381  10.8381  10.9112  10.9112
    11.3546  11.3546  11.7859  11.7859  11.9804  11.9804  12.8043  12.8043
    13.4842  13.4842  13.6768  13.6768  14.0433  14.0433  14.2015  14.2015
    14.5647  14.5647  15.1711  15.1711  21.2652  21.2652  23.3702  23.3702
    27.3742  27.3742  28.8075  28.8075  28.8986  28.8986  29.6813  29.6813
    29.9401  29.9401  30.2126  30.2126  30.7181  30.7181  31.2345  31.2345
    31.7631  31.7631  31.8242  31.8242  32.0237  32.0237  33.0704  33.0704
    33.1911  33.1911  33.8145  33.8145  34.1193  34.1193  34.4031  34.4031
    34.5047  34.5047  35.8818  35.8821  36.7481  36.7482  37.4111  37.4112
    38.0890

          k =-0.4325 0.0000 0.1162 (  5406 PWs)   bands (ev):

   -79.2656 -79.2656 -79.2386 -79.2386 -38.0379 -38.0379 -38.0325 -38.0325
   -38.0228 -38.0228 -38.0179 -38.0179 -37.9681 -37.9681 -37.9638 -37.9638
    -5.8688  -5.8688  -5.3411  -5.3411  -5.1712  -5.1712  -4.7624  -4.7624
     8.7499   8.7499   9.2582   9.2582   9.3602   9.3602   9.7292   9.7292
     9.7681   9.7681   9.9867   9.9867  10.1769  10.1769  10.2445  10.2445
    10.4676  10.4676  10.6212  10.6212  10.8161  10.8161  11.0146  11.0146
    11.2712  11.2712  11.5410  11.5410  12.2583  12.2583  12.7963  12.7963
    13.0372  13.0372  13.8534  13.8534  14.0398  14.0398  14.1101  14.1101
    14.8512  14.8512  15.2173  15.2173  21.4430  21.4430  23.4286  23.4286
    27.5130  27.5130  28.5479  28.5479  28.8197  28.8197  29.5412  29.5412
    29.8731  29.8731  30.0901  30.0901  30.3736  30.3736  30.6984  30.6984
    31.7167  31.7167  31.9991  31.9991  32.1688  32.1688  32.3138  32.3138
    33.9004  33.9004  34.2140  34.2140  34.3960  34.3960  34.8295  34.8295
    35.1189  35.1190  36.0908  36.0908  36.5583  36.5584  37.0977  37.0978
    37.4251

          k =-0.4325 0.0000-0.2324 (  5412 PWs)   bands (ev):

   -79.2636 -79.2636 -79.2452 -79.2452 -38.0418 -38.0418 -38.0322 -38.0322
   -38.0234 -38.0234 -38.0146 -38.0146 -37.9723 -37.9723 -37.9649 -37.9649
    -5.8594  -5.8594  -5.3575  -5.3575  -5.1634  -5.1634  -4.7653  -4.7653
     8.7793   8.7793   9.4081   9.4081   9.4962   9.4962   9.6605   9.6605
     9.8409   9.8409   9.9624   9.9624  10.0702  10.0702  10.1265  10.1265
    10.4441  10.4441  10.5417  10.5417  10.7541  10.7541  11.1345  11.1345
    11.2939  11.2939  11.4489  11.4489  12.3599  12.3599  12.7020  12.7020
    12.8315  12.8315  13.8592  13.8592  14.0504  14.0504  14.0898  14.0898
    15.0569  15.0569  15.2570  15.2570  21.6456  21.6456  23.4591  23.4591
    27.8505  27.8505  28.2418  28.2418  28.2960  28.2960  29.3778  29.3778
    30.0243  30.0243  30.0741  30.0741  30.4248  30.4248  30.4409  30.4409
    31.5522  31.5522  31.7632  31.7632  31.8061  31.8061  32.3250  32.3250
    34.1858  34.1858  34.5109  34.5109  34.8723  34.8723  35.1899  35.1900
    35.6801  35.6801  35.8662  35.8662  36.6094  36.6095  37.0464  37.0464
    37.6281

          k =-0.4325 0.2264 0.0000 (  5384 PWs)   bands (ev):

   -79.2460 -79.2460 -79.2360 -79.2360 -38.0315 -38.0315 -38.0238 -38.0238
   -38.0184 -38.0184 -38.0145 -38.0145 -37.9631 -37.9631 -37.9625 -37.9625
    -5.6856  -5.6856  -5.3809  -5.3809  -5.1343  -5.1343  -4.9551  -4.9551
     8.8426   8.8426   8.8521   8.8521   9.3115   9.3115   9.4949   9.4949
     9.7096   9.7096  10.0296  10.0296  10.1459  10.1459  10.1784  10.1784
    10.4251  10.4251  10.6804  10.6804  10.9350  10.9350  11.2217  11.2217
    11.4884  11.4884  11.7257  11.7257  12.3286  12.3286  12.8669  12.8669
    13.4137  13.4137  13.6166  13.6166  14.1743  14.1743  14.4560  14.4560
    14.5572  14.5572  14.7270  14.7270  22.2185  22.2185  23.5283  23.5283
    27.6219  27.6219  27.9707  27.9707  28.2664  28.2664  28.7769  28.7769
    29.7023  29.7023  29.9517  29.9517  30.5106  30.5106  30.9839  30.9839
    31.5341  31.5341  31.7319  31.7319  32.4632  32.4632  32.7002  32.7002
    33.3381  33.3381  33.5698  33.5698  33.7499  33.7499  35.4519  35.4520
    35.5505  35.5506  36.1105  36.1106  36.2248  36.2249  37.1100  37.1101
    38.4871

          k =-0.4325 0.2264 0.1162 (  5394 PWs)   bands (ev):

   -79.2508 -79.2508 -79.2418 -79.2418 -38.0349 -38.0349 -38.0284 -38.0284
   -38.0200 -38.0200 -38.0153 -38.0153 -37.9662 -37.9662 -37.9627 -37.9627
    -5.6770  -5.6770  -5.3837  -5.3837  -5.1356  -5.1356  -4.9623  -4.9623
     8.9594   8.9594   9.0063   9.0063   9.3119   9.3119   9.4691   9.4691
     9.6615   9.6615   9.9652   9.9652  10.1021  10.1021  10.1783  10.1783
    10.3428  10.3428  10.5983  10.5983  11.0247  11.0247  11.2430  11.2430
    11.3980  11.3980  11.6494  11.6494  12.3264  12.3264  12.7402  12.7402
    13.3959  13.3959  13.7504  13.7504  14.2161  14.2161  14.4204  14.4204
    14.6152  14.6152  14.8177  14.8177  22.3556  22.3556  23.6225  23.6225
    27.4629  27.4629  27.9442  27.9442  28.2429  28.2429  28.9041  28.9041
    29.4000  29.4000  29.6514  29.6514  29.9821  29.9821  31.2177  31.2177
    31.4824  31.4824  31.7767  31.7767  32.3285  32.3285  32.9165  32.9165
    33.5646  33.5646  33.9075  33.9075  34.3118  34.3118  34.9529  34.9529
    35.6116  35.6117  35.9608  35.9610  36.4097  36.4097  37.0990  37.0992
    38.3494

          k =-0.4325 0.2264-0.2324 (  5432 PWs)   bands (ev):

   -79.2647 -79.2647 -79.2640 -79.2640 -38.0411 -38.0411 -38.0405 -38.0405
   -38.0274 -38.0274 -38.0244 -38.0244 -37.9743 -37.9743 -37.9689 -37.9689
    -5.6682  -5.6682  -5.3873  -5.3873  -5.1364  -5.1364  -4.9704  -4.9704
     9.1468   9.1468   9.2265   9.2265   9.3341   9.3341   9.3638   9.3638
     9.6088   9.6088   9.8429   9.8429  10.0416  10.0416  10.1924  10.1924
    10.2043  10.2043  10.5315  10.5315  11.0365  11.0365  11.3221  11.3221
    11.3258  11.3258  11.8831  11.8831  11.9117  11.9117  12.7733  12.7733
    13.4261  13.4261  13.8044  13.8044  14.2562  14.2562  14.3630  14.3630
    14.7075  14.7075  14.8912  14.8912  22.5111  22.5111  23.7142  23.7142
    27.2803  27.2803  27.7315  27.7315  28.4328  28.4328  28.8599  28.8599
    28.9329  28.9329  29.8495  29.8495  30.1276  30.1276  30.5659  30.5659
    31.2739  31.2739  32.0095  32.0095  32.0447  32.0447  33.5870  33.5870
    33.6261  33.6261  34.1728  34.1728  34.4873  34.4873  35.3131  35.3132
    35.5335  35.5336  35.8132  35.8133  36.1342  36.1342  36.8818  36.8819
    38.8298

     the Fermi energy is    32.7986 ev

!    total energy              =   -2083.30906599 Ry
     Harris-Foulkes estimate   =   -2083.30907249 Ry
     estimated scf accuracy    <       0.00000803 Ry

     The total energy is the sum of the following terms:

     one-electron contribution =    -292.57933476 Ry
     hartree contribution      =     315.22161993 Ry
     xc contribution           =    -208.79495108 Ry
     ewald contribution        =   -1896.69877866 Ry
     smearing contrib. (-TS)   =      -0.45762141 Ry

     convergence has been achieved in  11 iterations

     Forces acting on atoms (Ry/au):

     atom    1 type  1   force =     0.00000000   -0.05768579   -0.00357366
     atom    2 type  1   force =     0.00000000    0.05768579    0.00357366
     atom    3 type  1   force =     0.00000000   -0.05768579    0.00357366
     atom    4 type  1   force =     0.00000000    0.05768579   -0.00357366
     atom    5 type  1   force =     0.00000000    0.09219830   -0.13943596
     atom    6 type  1   force =     0.00000000   -0.09219830    0.13943596
     atom    7 type  1   force =     0.00000000    0.09219830    0.13943596
     atom    8 type  1   force =     0.00000000   -0.09219830   -0.13943596
     atom    9 type  2   force =     0.00000000   -0.08378189    0.01735351
     atom   10 type  2   force =     0.00000000    0.08378189   -0.01735351
     atom   11 type  2   force =     0.00000000   -0.08378189   -0.01735351
     atom   12 type  2   force =     0.00000000    0.08378189    0.01735351

     Total force =     0.392957     Total SCF correction =     0.000000


     entering subroutine stress ...

          total   stress  (Ry/bohr**3)                   (kbar)     P= 1602.51
   0.01208778   0.00000000   0.00000000       1778.17      0.00      0.00
   0.00000000   0.00985772   0.00000000          0.00   1450.12      0.00
   0.00000000   0.00000000   0.01073549          0.00      0.00   1579.24


     Writing output data file Prototype-La-oP12-Co2Si.save
 
     init_run     :      3.76s CPU      4.59s WALL (       2 calls)
     electrons    :    813.11s CPU    967.85s WALL (       5 calls)
     update_pot   :      1.92s CPU      1.94s WALL (       3 calls)
     forces       :      4.09s CPU      4.29s WALL (       5 calls)
     stress       :     10.56s CPU     10.74s WALL (       5 calls)

     Called by init_run:
     wfcinit      :      2.89s CPU      3.70s WALL (       2 calls)
     potinit      :      0.41s CPU      0.42s WALL (       2 calls)

     Called by electrons:
     c_bands      :    794.09s CPU    908.40s WALL (      52 calls)
     sum_band     :     18.61s CPU     24.38s WALL (      52 calls)
     v_of_rho     :      0.08s CPU      0.09s WALL (      57 calls)
     mix_rho      :      0.09s CPU      0.10s WALL (      52 calls)

     Called by c_bands:
     init_us_2    :      1.42s CPU      1.68s WALL (    1392 calls)
     ccgdiagg     :    724.15s CPU    820.51s WALL (     731 calls)
     wfcrot       :     71.40s CPU     89.08s WALL (     743 calls)

     Called by *cgdiagg:
     h_psi        :    521.03s CPU    617.65s WALL (  463056 calls)
     cdiaghg      :      4.15s CPU      4.49s WALL (     743 calls)

     Called by h_psi:
     add_vuspsi   :     91.74s CPU    104.07s WALL (  463056 calls)

     General routines
     calbec       :    212.25s CPU    219.60s WALL (  925489 calls)
     fft          :      0.11s CPU      0.13s WALL (     251 calls)
     fftw         :    306.13s CPU    363.01s WALL ( 1163056 calls)
     davcio       :      0.81s CPU      1.97s WALL (    2016 calls)
 
     Parallel routines
     fft_scatter  :    117.27s CPU    142.20s WALL ( 1163307 calls)
 
     PWSCF        : 13m53.79s CPU    16m35.50s WALL

 
   This run was terminated on:   0:57:29  22Mar2018            

=------------------------------------------------------------------------------=
   JOB DONE.
=------------------------------------------------------------------------------=
