
     Program PWSCF v.5.0.2 starts on 23Mar2018 at  0: 4:44 

     This program is part of the open-source Quantum ESPRESSO suite
     for quantum simulation of materials; please cite
         "P. Giannozzi et al., J. Phys.:Condens. Matter 21 395502 (2009);
          URL http://www.quantum-espresso.org", 
     in publications or presentations arising from this work. More details at
     http://www.quantum-espresso.org/quote.php

     Parallel version (MPI), running on     8 processors
     R & G space division:  proc/nbgrp/npool/nimage =       8

     Current dimensions of program PWSCF are:
     Max number of different atomic species (ntypx) = 10
     Max number of k-points (npk) =  40000
     Max angular momentum in pseudopotentials (lmaxx) =  3
     Waiting for input...
     Reading input from standard input
               file Na.pbe-spn-kjpaw_psl.0.2.UPF: wavefunction(s)  2P 3P renormalized
               file Cl.pbe-n-kjpaw_psl.0.1.UPF: wavefunction(s)  3S 3P renormalized

     Subspace diagonalization in iterative solution of the eigenvalue problem:
     scalapack distributed-memory algorithm (size of sub-group:  2*  2 procs)

 
     Parallelization info
     --------------------
     sticks:   dense  smooth     PW     G-vecs:    dense   smooth      PW
     Min         138     138     45                 2408     2408     466
     Max         139     139     46                 2409     2409     467
     Sum        1105    1105    367                19271    19271    3731
 


     bravais-lattice index     =            0
     lattice parameter (alat)  =       7.7487  a.u.
     unit-cell volume          =     306.9197 (a.u.)^3
     number of atoms/cell      =            2
     number of atomic types    =            2
     number of electrons       =        16.00
     number of Kohn-Sham states=            8
     kinetic-energy cutoff     =      60.0000  Ry
     charge density cutoff     =     240.0000  Ry
     convergence threshold     =      1.0E-08
     mixing beta               =       0.7000
     number of iterations used =            8  plain     mixing
     Exchange-correlation      =  SLA  PW   PBX  PBC ( 1 4 3 4 0)
     EXX-fraction              =        0.00
     nstep                     =           50


     celldm(1)=   7.748682  celldm(2)=   0.000000  celldm(3)=   0.000000
     celldm(4)=   0.000000  celldm(5)=   0.000000  celldm(6)=   0.000000

     crystal axes: (cart. coord. in units of alat)
               a(1) = (   1.000000   0.000000   0.000000 )  
               a(2) = (   0.004706   0.956399   0.000000 )  
               a(3) = (  -0.470962   0.458676   0.689767 )  

     reciprocal axes: (cart. coord. in units 2 pi/alat)
               b(1) = (  1.000000 -0.004921  0.686057 )  
               b(2) = (  0.000000  1.045588 -0.695287 )  
               b(3) = (  0.000000  0.000000  1.449766 )  


     PseudoPot. # 1 for Na read from file:
     /projects/e20438/bin/espresso/pseudo/Na.pbe-spn-kjpaw_psl.0.2.UPF
     MD5 check sum: af6cebf537ceac8ff9d4cdfd6fc7ff14
     Pseudo is Projector augmented-wave, Zval =  9.0
     Generated using "atomic" code by A. Dal Corso  v.5.0.2 svn rev. 9415
     Shape of augmentation charge: PSQ
     Using radial grid of 1121 points,  4 beta functions with: 
                l(1) =   0
                l(2) =   0
                l(3) =   1
                l(4) =   1
     Q(r) pseudized with 0 coefficients 


     PseudoPot. # 2 for Cl read from file:
     /projects/e20438/bin/espresso/pseudo/Cl.pbe-n-kjpaw_psl.0.1.UPF
     MD5 check sum: 39501d8aaca1fada178cfed307344fc1
     Pseudo is Projector augmented-wave + core cor, Zval =  7.0
     Generated using "atomic" code by A. Dal Corso  v.5.0.2 svn rev. 9415
     Shape of augmentation charge: PSQ
     Using radial grid of 1157 points,  4 beta functions with: 
                l(1) =   0
                l(2) =   0
                l(3) =   1
                l(4) =   1
     Q(r) pseudized with 0 coefficients 


     atomic species   valence    mass     pseudopotential
        Na             9.00    22.98977     Na( 1.00)
        Cl             7.00    35.45270     Cl( 1.00)

     No symmetry found



   Cartesian axes

     site n.     atom                  positions (alat units)
         1           Na  tau(   1) = (   0.1167633   1.2420979   0.4944601  )
         2           Cl  tau(   2) = (   0.6120573   0.7614482   0.4941503  )

     number of k points=    62
                       cart. coord. in units 2pi/alat
        k(    1) = (   0.0000000   0.0000000   0.0000000), wk =   0.0166667
        k(    2) = (   0.0000000   0.0000000   0.2416276), wk =   0.0333333
        k(    3) = (   0.0000000   0.0000000   0.4832553), wk =   0.0333333
        k(    4) = (   0.0000000   0.0000000  -0.7248829), wk =   0.0166667
        k(    5) = (   0.0000000   0.2091177  -0.1390574), wk =   0.0333333
        k(    6) = (   0.0000000   0.2091177   0.1025702), wk =   0.0333333
        k(    7) = (   0.0000000   0.2091177   0.3441979), wk =   0.0333333
        k(    8) = (   0.0000000   0.2091177  -0.8639403), wk =   0.0333333
        k(    9) = (   0.0000000   0.2091177  -0.6223127), wk =   0.0333333
        k(   10) = (   0.0000000   0.2091177  -0.3806851), wk =   0.0333333
        k(   11) = (   0.0000000   0.4182354  -0.2781149), wk =   0.0333333
        k(   12) = (   0.0000000   0.4182354  -0.0364872), wk =   0.0333333
        k(   13) = (   0.0000000   0.4182354   0.2051404), wk =   0.0333333
        k(   14) = (   0.0000000   0.4182354  -1.0029978), wk =   0.0333333
        k(   15) = (   0.0000000   0.4182354  -0.7613701), wk =   0.0333333
        k(   16) = (   0.0000000   0.4182354  -0.5197425), wk =   0.0333333
        k(   17) = (   0.2500000  -0.0012301   0.1715142), wk =   0.0333333
        k(   18) = (   0.2500000  -0.0012301   0.4131419), wk =   0.0333333
        k(   19) = (   0.2500000  -0.0012301   0.6547695), wk =   0.0333333
        k(   20) = (   0.2500000  -0.0012301  -0.5533687), wk =   0.0333333
        k(   21) = (   0.2500000  -0.0012301  -0.3117411), wk =   0.0333333
        k(   22) = (   0.2500000  -0.0012301  -0.0701134), wk =   0.0333333
        k(   23) = (   0.2500000   0.2078875   0.0324568), wk =   0.0333333
        k(   24) = (   0.2500000   0.2078875   0.2740844), wk =   0.0333333
        k(   25) = (   0.2500000   0.2078875   0.5157121), wk =   0.0333333
        k(   26) = (   0.2500000   0.2078875  -0.6924261), wk =   0.0333333
        k(   27) = (   0.2500000   0.2078875  -0.4507985), wk =   0.0333333
        k(   28) = (   0.2500000   0.2078875  -0.2091708), wk =   0.0333333
        k(   29) = (   0.2500000   0.4170052  -0.1066006), wk =   0.0333333
        k(   30) = (   0.2500000   0.4170052   0.1350270), wk =   0.0333333
        k(   31) = (   0.2500000   0.4170052   0.3766546), wk =   0.0333333
        k(   32) = (   0.2500000   0.4170052  -0.8314836), wk =   0.0333333
        k(   33) = (   0.2500000   0.4170052  -0.5898559), wk =   0.0333333
        k(   34) = (   0.2500000   0.4170052  -0.3482283), wk =   0.0333333
        k(   35) = (   0.2500000  -0.4194655   0.4496291), wk =   0.0333333
        k(   36) = (   0.2500000  -0.4194655   0.6912567), wk =   0.0333333
        k(   37) = (   0.2500000  -0.4194655   0.9328844), wk =   0.0333333
        k(   38) = (   0.2500000  -0.4194655  -0.2752538), wk =   0.0333333
        k(   39) = (   0.2500000  -0.4194655  -0.0336262), wk =   0.0333333
        k(   40) = (   0.2500000  -0.4194655   0.2080014), wk =   0.0333333
        k(   41) = (   0.2500000  -0.2103478   0.3105716), wk =   0.0333333
        k(   42) = (   0.2500000  -0.2103478   0.5521993), wk =   0.0333333
        k(   43) = (   0.2500000  -0.2103478   0.7938269), wk =   0.0333333
        k(   44) = (   0.2500000  -0.2103478  -0.4143113), wk =   0.0333333
        k(   45) = (   0.2500000  -0.2103478  -0.1726836), wk =   0.0333333
        k(   46) = (   0.2500000  -0.2103478   0.0689440), wk =   0.0333333
        k(   47) = (  -0.5000000   0.0024603  -0.3430284), wk =   0.0166667
        k(   48) = (  -0.5000000   0.0024603  -0.1014008), wk =   0.0333333
        k(   49) = (  -0.5000000   0.0024603   0.1402268), wk =   0.0333333
        k(   50) = (  -0.5000000   0.0024603  -1.0679114), wk =   0.0166667
        k(   51) = (  -0.5000000   0.2115780  -0.4820859), wk =   0.0333333
        k(   52) = (  -0.5000000   0.2115780  -0.2404582), wk =   0.0333333
        k(   53) = (  -0.5000000   0.2115780   0.0011694), wk =   0.0333333
        k(   54) = (  -0.5000000   0.2115780  -1.2069688), wk =   0.0333333
        k(   55) = (  -0.5000000   0.2115780  -0.9653411), wk =   0.0333333
        k(   56) = (  -0.5000000   0.2115780  -0.7237135), wk =   0.0333333
        k(   57) = (  -0.5000000   0.4206957  -0.6211433), wk =   0.0333333
        k(   58) = (  -0.5000000   0.4206957  -0.3795157), wk =   0.0333333
        k(   59) = (  -0.5000000   0.4206957  -0.1378880), wk =   0.0333333
        k(   60) = (  -0.5000000   0.4206957  -1.3460262), wk =   0.0333333
        k(   61) = (  -0.5000000   0.4206957  -1.1043986), wk =   0.0333333
        k(   62) = (  -0.5000000   0.4206957  -0.8627709), wk =   0.0333333

     Dense  grid:    19271 G-vectors     FFT dimensions: (  40,  40,  40)

     Largest allocated arrays     est. size (Mb)     dimensions
        Kohn-Sham Wavefunctions         0.04 Mb     (    313,    8)
        NL pseudopotentials             0.08 Mb     (    313,   16)
        Each V/rho on FFT grid          0.12 Mb     (   8000)
        Each G-vector array             0.02 Mb     (   2409)
        G-vector shells                 0.02 Mb     (   2409)
     Largest temporary arrays     est. size (Mb)     dimensions
        Each subspace H/S matrix        0.00 Mb     (   4,   4)
        Each <psi_i|beta_j> matrix      0.00 Mb     (     16,    8)
        Arrays for rho mixing           0.98 Mb     (   8000,   8)

     Check: negative/imaginary core charge=   -0.000006    0.000000

     Initial potential from superposition of free atoms

     starting charge   15.49915, renormalised to   16.00000
     Starting wfc are   12 randomized atomic wfcs
     Checking if some PAW data can be deallocated... 

     total cpu time spent up to now is        1.6 secs

     Self-consistent Calculation

     iteration #  1     ecut=    60.00 Ry     beta=0.70
     CG style diagonalization
     ethr =  1.00E-02,  avg # of iterations =  2.0

     total cpu time spent up to now is        2.0 secs

     total energy              =    -188.77432394 Ry
     Harris-Foulkes estimate   =    -188.92451112 Ry
     estimated scf accuracy    <       0.18040683 Ry

     iteration #  2     ecut=    60.00 Ry     beta=0.70
     CG style diagonalization
     ethr =  1.13E-03,  avg # of iterations =  3.9

     total cpu time spent up to now is        2.8 secs

     total energy              =    -188.83175952 Ry
     Harris-Foulkes estimate   =    -188.84247429 Ry
     estimated scf accuracy    <       0.01799590 Ry

     iteration #  3     ecut=    60.00 Ry     beta=0.70
     CG style diagonalization
     ethr =  1.12E-04,  avg # of iterations =  4.8

     total cpu time spent up to now is        4.3 secs

     total energy              =    -188.84726041 Ry
     Harris-Foulkes estimate   =    -188.84983301 Ry
     estimated scf accuracy    <       0.00468885 Ry

     iteration #  4     ecut=    60.00 Ry     beta=0.70
     CG style diagonalization
     ethr =  2.93E-05,  avg # of iterations =  4.3

     total cpu time spent up to now is        5.2 secs

     total energy              =    -188.84930785 Ry
     Harris-Foulkes estimate   =    -188.84936123 Ry
     estimated scf accuracy    <       0.00014242 Ry

     iteration #  5     ecut=    60.00 Ry     beta=0.70
     CG style diagonalization
     c_bands:  1 eigenvalues not converged
     ethr =  8.90E-07,  avg # of iterations =  7.6

     total cpu time spent up to now is        7.1 secs

     total energy              =    -188.85022253 Ry
     Harris-Foulkes estimate   =    -188.85047625 Ry
     estimated scf accuracy    <       0.00042351 Ry

     iteration #  6     ecut=    60.00 Ry     beta=0.70
     CG style diagonalization
     ethr =  8.90E-07,  avg # of iterations =  5.6

     total cpu time spent up to now is        8.2 secs

     total energy              =    -188.85054708 Ry
     Harris-Foulkes estimate   =    -188.85054635 Ry
     estimated scf accuracy    <       0.00000525 Ry

     iteration #  7     ecut=    60.00 Ry     beta=0.70
     CG style diagonalization
     c_bands:  1 eigenvalues not converged
     c_bands:  1 eigenvalues not converged
     c_bands:  1 eigenvalues not converged
     c_bands:  1 eigenvalues not converged
     c_bands:  1 eigenvalues not converged
     ethr =  3.28E-08,  avg # of iterations =  8.9

     total cpu time spent up to now is        9.8 secs

     total energy              =    -188.85072044 Ry
     Harris-Foulkes estimate   =    -188.85071948 Ry
     estimated scf accuracy    <       0.00001219 Ry

     iteration #  8     ecut=    60.00 Ry     beta=0.70
     CG style diagonalization
     c_bands:  1 eigenvalues not converged
     ethr =  3.28E-08,  avg # of iterations =  6.3

     total cpu time spent up to now is       11.0 secs

     total energy              =    -188.85073458 Ry
     Harris-Foulkes estimate   =    -188.85074704 Ry
     estimated scf accuracy    <       0.00002250 Ry

     iteration #  9     ecut=    60.00 Ry     beta=0.70
     CG style diagonalization
     ethr =  3.28E-08,  avg # of iterations =  4.9

     total cpu time spent up to now is       12.0 secs

     total energy              =    -188.85074274 Ry
     Harris-Foulkes estimate   =    -188.85074390 Ry
     estimated scf accuracy    <       0.00000415 Ry

     iteration # 10     ecut=    60.00 Ry     beta=0.70
     CG style diagonalization
     ethr =  2.59E-08,  avg # of iterations =  4.5

     total cpu time spent up to now is       12.8 secs

     total energy              =    -188.85074348 Ry
     Harris-Foulkes estimate   =    -188.85074492 Ry
     estimated scf accuracy    <       0.00000263 Ry

     iteration # 11     ecut=    60.00 Ry     beta=0.70
     CG style diagonalization
     c_bands:  1 eigenvalues not converged
     ethr =  1.64E-08,  avg # of iterations =  4.4

     total cpu time spent up to now is       13.8 secs

     total energy              =    -188.85074463 Ry
     Harris-Foulkes estimate   =    -188.85074487 Ry
     estimated scf accuracy    <       0.00000058 Ry

     iteration # 12     ecut=    60.00 Ry     beta=0.70
     CG style diagonalization
     ethr =  3.62E-09,  avg # of iterations =  5.7

     total cpu time spent up to now is       14.8 secs

     total energy              =    -188.85074548 Ry
     Harris-Foulkes estimate   =    -188.85074549 Ry
     estimated scf accuracy    <       0.00000015 Ry

     iteration # 13     ecut=    60.00 Ry     beta=0.70
     CG style diagonalization
     ethr =  9.09E-10,  avg # of iterations =  5.6

     total cpu time spent up to now is       15.9 secs

     total energy              =    -188.85074575 Ry
     Harris-Foulkes estimate   =    -188.85074578 Ry
     estimated scf accuracy    <       0.00000007 Ry

     iteration # 14     ecut=    60.00 Ry     beta=0.70
     CG style diagonalization
     ethr =  4.40E-10,  avg # of iterations =  5.7

     total cpu time spent up to now is       17.0 secs

     total energy              =    -188.85074586 Ry
     Harris-Foulkes estimate   =    -188.85074588 Ry
     estimated scf accuracy    <       0.00000008 Ry

     iteration # 15     ecut=    60.00 Ry     beta=0.70
     CG style diagonalization
     ethr =  4.40E-10,  avg # of iterations =  4.6

     total cpu time spent up to now is       17.9 secs

     total energy              =    -188.85074591 Ry
     Harris-Foulkes estimate   =    -188.85074591 Ry
     estimated scf accuracy    <       0.00000002 Ry

     iteration # 16     ecut=    60.00 Ry     beta=0.70
     CG style diagonalization
     ethr =  1.40E-10,  avg # of iterations =  4.9

     total cpu time spent up to now is       18.8 secs

     End of self-consistent calculation

          k = 0.0000 0.0000 0.0000 (  2411 PWs)   bands (ev):

   -48.0095 -19.9247 -19.9212 -19.9151 -11.6843   0.8162   0.9650   1.0567

          k = 0.0000 0.0000 0.2416 (  2407 PWs)   bands (ev):

   -48.0093 -19.9290 -19.9244 -19.9176 -11.5846   0.3304   0.6999   0.8806

          k = 0.0000 0.0000 0.4833 (  2411 PWs)   bands (ev):

   -48.0088 -19.9382 -19.9283 -19.9217 -11.3988  -0.4271   0.3836   0.6075

          k = 0.0000 0.0000-0.7249 (  2406 PWs)   bands (ev):

   -48.0085 -19.9418 -19.9301 -19.9235 -11.3138  -0.6807   0.2434   0.4829

          k = 0.0000 0.2091-0.1391 (  2408 PWs)   bands (ev):

   -48.0092 -19.9315 -19.9242 -19.9162 -11.5766   0.1679   0.7618   0.9394

          k = 0.0000 0.2091 0.1026 (  2424 PWs)   bands (ev):

   -48.0093 -19.9330 -19.9223 -19.9156 -11.5863   0.3575   0.7473   0.8611

          k = 0.0000 0.2091 0.3442 (  2407 PWs)   bands (ev):

   -48.0089 -19.9417 -19.9244 -19.9181 -11.4481  -0.2954   0.5581   0.6734

          k = 0.0000 0.2091-0.8639 (  2405 PWs)   bands (ev):

   -48.0086 -19.9437 -19.9302 -19.9213 -11.3202  -0.5447   0.2208   0.3561

          k = 0.0000 0.2091-0.6223 (  2409 PWs)   bands (ev):

   -48.0086 -19.9380 -19.9358 -19.9218 -11.3157  -0.5137   0.1343   0.3436

          k = 0.0000 0.2091-0.3807 (  2408 PWs)   bands (ev):

   -48.0089 -19.9373 -19.9289 -19.9192 -11.4336  -0.3914   0.5360   0.6270

          k = 0.0000 0.4182-0.2781 (  2410 PWs)   bands (ev):

   -48.0088 -19.9464 -19.9259 -19.9171 -11.3934  -0.7930   0.6353   0.7862

          k = 0.0000 0.4182-0.0365 (  2413 PWs)   bands (ev):

   -48.0089 -19.9417 -19.9271 -19.9164 -11.4365  -0.3607   0.4959   0.7082

          k = 0.0000 0.4182 0.2051 (  2423 PWs)   bands (ev):

   -48.0088 -19.9479 -19.9245 -19.9166 -11.3966  -0.5894   0.5850   0.6692

          k = 0.0000 0.4182-1.0030 (  2429 PWs)   bands (ev):

   -48.0086 -19.9519 -19.9254 -19.9177 -11.3293  -0.8253   0.4991   0.5677

          k = 0.0000 0.4182-0.7614 (  2407 PWs)   bands (ev):

   -48.0086 -19.9457 -19.9315 -19.9189 -11.3144  -0.4822  -0.0319   0.4998

          k = 0.0000 0.4182-0.5197 (  2412 PWs)   bands (ev):

   -48.0087 -19.9458 -19.9300 -19.9184 -11.3381  -0.7626   0.3830   0.5567

          k = 0.2500-0.0012 0.1715 (  2407 PWs)   bands (ev):

   -48.0092 -19.9288 -19.9245 -19.9217 -11.5460  -0.2043   0.8600   0.9397

          k = 0.2500-0.0012 0.4131 (  2411 PWs)   bands (ev):

   -48.0089 -19.9355 -19.9270 -19.9248 -11.4157  -0.6249   0.5182   0.7312

          k = 0.2500-0.0012 0.6548 (  2399 PWs)   bands (ev):

   -48.0086 -19.9376 -19.9301 -19.9274 -11.3229  -0.4801  -0.1273   0.5825

          k = 0.2500-0.0012-0.5534 (  2401 PWs)   bands (ev):

   -48.0086 -19.9441 -19.9286 -19.9213 -11.3365  -0.6316   0.1638   0.6096

          k = 0.2500-0.0012-0.3117 (  2417 PWs)   bands (ev):

   -48.0090 -19.9411 -19.9263 -19.9162 -11.4563  -0.4283   0.6494   0.7911

          k = 0.2500-0.0012-0.0701 (  2403 PWs)   bands (ev):

   -48.0092 -19.9299 -19.9244 -19.9180 -11.5723   0.1594   0.6976   0.9500

          k = 0.2500 0.2079 0.0325 (  2408 PWs)   bands (ev):

   -48.0091 -19.9316 -19.9254 -19.9200 -11.5211  -0.0059   0.5986   0.7993

          k = 0.2500 0.2079 0.2741 (  2410 PWs)   bands (ev):

   -48.0089 -19.9372 -19.9250 -19.9224 -11.4442  -0.3985   0.4489   0.7776

          k = 0.2500 0.2079 0.5157 (  2406 PWs)   bands (ev):

   -48.0087 -19.9399 -19.9282 -19.9259 -11.3378  -0.4897   0.0239   0.5327

          k = 0.2500 0.2079-0.6924 (  2402 PWs)   bands (ev):

   -48.0085 -19.9399 -19.9323 -19.9248 -11.3011  -0.3333  -0.1374   0.2830

          k = 0.2500 0.2079-0.4508 (  2413 PWs)   bands (ev):

   -48.0087 -19.9412 -19.9327 -19.9188 -11.3537  -0.5097   0.1307   0.5988

          k = 0.2500 0.2079-0.2092 (  2416 PWs)   bands (ev):

   -48.0090 -19.9361 -19.9292 -19.9170 -11.4682  -0.2325   0.5086   0.7457

          k = 0.2500 0.4170-0.1066 (  2418 PWs)   bands (ev):

   -48.0088 -19.9414 -19.9281 -19.9197 -11.3889  -0.4934   0.3475   0.6424

          k = 0.2500 0.4170 0.1350 (  2406 PWs)   bands (ev):

   -48.0087 -19.9424 -19.9271 -19.9206 -11.3798  -0.4592   0.4031   0.4844

          k = 0.2500 0.4170 0.3767 (  2410 PWs)   bands (ev):

   -48.0086 -19.9468 -19.9255 -19.9228 -11.3258  -0.5832   0.0844   0.5709

          k = 0.2500 0.4170-0.8315 (  2413 PWs)   bands (ev):

   -48.0085 -19.9454 -19.9282 -19.9232 -11.3035  -0.5112   0.0120   0.4072

          k = 0.2500 0.4170-0.5899 (  2407 PWs)   bands (ev):

   -48.0085 -19.9415 -19.9343 -19.9205 -11.3101  -0.4890  -0.0161   0.4322

          k = 0.2500 0.4170-0.3482 (  2410 PWs)   bands (ev):

   -48.0087 -19.9434 -19.9309 -19.9194 -11.3415  -0.6298   0.1942   0.5870

          k = 0.2500-0.4195 0.4496 (  2404 PWs)   bands (ev):

   -48.0087 -19.9428 -19.9280 -19.9238 -11.3316  -0.6011  -0.0006   0.6613

          k = 0.2500-0.4195 0.6913 (  2408 PWs)   bands (ev):

   -48.0086 -19.9419 -19.9317 -19.9224 -11.3104  -0.4812   0.0541   0.3387

          k = 0.2500-0.4195 0.9329 (  2404 PWs)   bands (ev):

   -48.0085 -19.9462 -19.9313 -19.9194 -11.3036  -0.5324   0.0123   0.4398

          k = 0.2500-0.4195-0.2753 (  2435 PWs)   bands (ev):

   -48.0086 -19.9475 -19.9275 -19.9188 -11.3409  -0.5872   0.2845   0.5213

          k = 0.2500-0.4195-0.0336 (  2425 PWs)   bands (ev):

   -48.0087 -19.9422 -19.9273 -19.9199 -11.3877  -0.4383   0.4434   0.5080

          k = 0.2500-0.4195 0.2080 (  2403 PWs)   bands (ev):

   -48.0087 -19.9412 -19.9278 -19.9221 -11.3719  -0.5492   0.3006   0.5906

          k = 0.2500-0.2103 0.3106 (  2398 PWs)   bands (ev):

   -48.0089 -19.9335 -19.9287 -19.9237 -11.4314  -0.4532   0.3241   0.8325

          k = 0.2500-0.2103 0.5522 (  2403 PWs)   bands (ev):

   -48.0087 -19.9340 -19.9327 -19.9275 -11.3334  -0.4573  -0.0361   0.4890

          k = 0.2500-0.2103 0.7938 (  2405 PWs)   bands (ev):

   -48.0085 -19.9403 -19.9335 -19.9231 -11.3020  -0.3624  -0.1052   0.2926

          k = 0.2500-0.2103-0.4143 (  2422 PWs)   bands (ev):

   -48.0087 -19.9447 -19.9300 -19.9173 -11.3613  -0.5207   0.2401   0.5991

          k = 0.2500-0.2103-0.1727 (  2415 PWs)   bands (ev):

   -48.0090 -19.9387 -19.9259 -19.9169 -11.4770  -0.1704   0.6154   0.6803

          k = 0.2500-0.2103 0.0689 (  2416 PWs)   bands (ev):

   -48.0091 -19.9312 -19.9241 -19.9225 -11.5152  -0.0575   0.6636   0.7361

          k =-0.5000 0.0025-0.3430 (  2398 PWs)   bands (ev):

   -48.0089 -19.9408 -19.9259 -19.9223 -11.4003  -0.9802   0.7601   0.8320

          k =-0.5000 0.0025-0.1014 (  2396 PWs)   bands (ev):

   -48.0089 -19.9351 -19.9292 -19.9241 -11.4028  -0.6688   0.3942   0.7921

          k =-0.5000 0.0025 0.1402 (  2408 PWs)   bands (ev):

   -48.0088 -19.9425 -19.9268 -19.9211 -11.3817  -0.6150   0.2836   0.7596

          k =-0.5000 0.0025-1.0679 (  2418 PWs)   bands (ev):

   -48.0087 -19.9494 -19.9266 -19.9167 -11.3581  -0.9349   0.6147   0.7486

          k =-0.5000 0.2116-0.4821 (  2398 PWs)   bands (ev):

   -48.0088 -19.9366 -19.9287 -19.9257 -11.3728  -0.7148   0.3245   0.7032

          k =-0.5000 0.2116-0.2405 (  2399 PWs)   bands (ev):

   -48.0088 -19.9360 -19.9312 -19.9243 -11.3694  -0.7424   0.3915   0.6423

          k =-0.5000 0.2116 0.0012 (  2403 PWs)   bands (ev):

   -48.0087 -19.9372 -19.9281 -19.9259 -11.3677  -0.4745   0.2116   0.5366

          k =-0.5000 0.2116-1.2070 (  2403 PWs)   bands (ev):

   -48.0087 -19.9446 -19.9300 -19.9192 -11.3420  -0.6759   0.3101   0.5530

          k =-0.5000 0.2116-0.9653 (  2407 PWs)   bands (ev):

   -48.0087 -19.9442 -19.9314 -19.9184 -11.3398  -0.6929   0.3491   0.5076

          k =-0.5000 0.2116-0.7237 (  2396 PWs)   bands (ev):

   -48.0087 -19.9358 -19.9315 -19.9237 -11.3689  -0.4666   0.2138   0.5234

          k =-0.5000 0.4207-0.6211 (  2411 PWs)   bands (ev):

   -48.0086 -19.9404 -19.9293 -19.9246 -11.3263  -0.6198   0.1649   0.5288

          k =-0.5000 0.4207-0.3795 (  2403 PWs)   bands (ev):

   -48.0086 -19.9386 -19.9290 -19.9282 -11.3143  -0.3775  -0.1382   0.3974

          k =-0.5000 0.4207-0.1379 (  2411 PWs)   bands (ev):

   -48.0086 -19.9406 -19.9282 -19.9267 -11.3165  -0.5312   0.1023   0.4018

          k =-0.5000 0.4207-1.3460 (  2405 PWs)   bands (ev):

   -48.0085 -19.9429 -19.9300 -19.9227 -11.3146  -0.6234   0.2862   0.3704

          k =-0.5000 0.4207-1.1044 (  2415 PWs)   bands (ev):

   -48.0085 -19.9406 -19.9349 -19.9216 -11.2995  -0.3499  -0.1268   0.3007

          k =-0.5000 0.4207-0.8628 (  2402 PWs)   bands (ev):

   -48.0086 -19.9397 -19.9339 -19.9219 -11.3135  -0.5393   0.1943   0.2980

!    total energy              =    -188.85074593 Ry
     Harris-Foulkes estimate   =    -188.85074593 Ry
     estimated scf accuracy    <          5.5E-09 Ry

     total all-electron energy =     -1248.137738 Ry

     The total energy is the sum of the following terms:

     one-electron contribution =     -81.48766097 Ry
     hartree contribution      =      42.43357010 Ry
     xc contribution           =     -24.67508800 Ry
     ewald contribution        =     -68.50175285 Ry
     one-center paw contrib.   =     -56.61981421 Ry

     convergence has been achieved in  16 iterations

     Forces acting on atoms (Ry/au):

     atom    1 type  1   force =    -0.00046223   -0.00044652   -0.00007455
     atom    2 type  2   force =     0.00046223    0.00044652    0.00007455

     Total force =     0.000915     Total SCF correction =     0.000008


     entering subroutine stress ...

          total   stress  (Ry/bohr**3)                   (kbar)     P=    4.28
  -0.00001116  -0.00000685  -0.00003591         -1.64     -1.01     -5.28
  -0.00000685   0.00006557   0.00002225         -1.01      9.65      3.27
  -0.00003591   0.00002225   0.00003295         -5.28      3.27      4.85


     BFGS Geometry Optimization

     number of scf cycles    =   1
     number of bfgs steps    =   0

     enthalpy new            =    -188.8507459280 Ry

     new trust radius        =       0.0060948639 bohr
     new conv_thr            =       0.0000000100 Ry

     new unit-cell volume =    307.58986 a.u.^3 (    45.58011 Ang^3 )

CELL_PARAMETERS (alat=  7.74868153)
   0.999720999  -0.000171292  -0.000897778
   0.004540909   0.957966178   0.000527890
  -0.471528570   0.459891821   0.691012748

ATOMIC_POSITIONS (crystal)
Na       0.449813276   0.954877872   0.716837438
Cl       0.947391682   0.452638654   0.716416195



     Writing output data file NaCl_pegs+pwscf.save
     NEW-OLD atomic charge density approx. for the potential
     NEW k-points:
        k(    1) = (   0.0000000   0.0000000   0.0000000), wk =   0.0166667
        k(    2) = (   0.0002168  -0.0001341   0.2414290), wk =   0.0333333
        k(    3) = (   0.0004336  -0.0002681   0.4828581), wk =   0.0333333
        k(    4) = (  -0.0006504   0.0004022  -0.7242871), wk =   0.0166667
        k(    5) = (  -0.0000891   0.2088527  -0.1390592), wk =   0.0333333
        k(    6) = (   0.0001277   0.2087186   0.1023699), wk =   0.0333333
        k(    7) = (   0.0003445   0.2085846   0.3437989), wk =   0.0333333
        k(    8) = (  -0.0007395   0.2092549  -0.8633463), wk =   0.0333333
        k(    9) = (  -0.0005227   0.2091208  -0.6219172), wk =   0.0333333
        k(   10) = (  -0.0003059   0.2089868  -0.3804882), wk =   0.0333333
        k(   11) = (  -0.0001782   0.4177054  -0.2781183), wk =   0.0333333
        k(   12) = (   0.0000386   0.4175713  -0.0366893), wk =   0.0333333
        k(   13) = (   0.0002554   0.4174372   0.2047398), wk =   0.0333333
        k(   14) = (  -0.0008286   0.4181076  -1.0024054), wk =   0.0333333
        k(   15) = (  -0.0006118   0.4179735  -0.7609764), wk =   0.0333333
        k(   16) = (  -0.0003950   0.4178394  -0.5195474), wk =   0.0333333
        k(   17) = (   0.2502237  -0.0012807   0.1715982), wk =   0.0333333
        k(   18) = (   0.2504404  -0.0014147   0.4130273), wk =   0.0333333
        k(   19) = (   0.2506572  -0.0015488   0.6544563), wk =   0.0333333
        k(   20) = (   0.2495733  -0.0008785  -0.5526889), wk =   0.0333333
        k(   21) = (   0.2497901  -0.0010125  -0.3112599), wk =   0.0333333
        k(   22) = (   0.2500069  -0.0011466  -0.0698308), wk =   0.0333333
        k(   23) = (   0.2501346   0.2075720   0.0325391), wk =   0.0333333
        k(   24) = (   0.2503513   0.2074380   0.2739681), wk =   0.0333333
        k(   25) = (   0.2505681   0.2073039   0.5153971), wk =   0.0333333
        k(   26) = (   0.2494842   0.2079742  -0.6917481), wk =   0.0333333
        k(   27) = (   0.2497010   0.2078402  -0.4503190), wk =   0.0333333
        k(   28) = (   0.2499178   0.2077061  -0.2088900), wk =   0.0333333
        k(   29) = (   0.2500455   0.4164247  -0.1065201), wk =   0.0333333
        k(   30) = (   0.2502622   0.4162907   0.1349089), wk =   0.0333333
        k(   31) = (   0.2504790   0.4161566   0.3763380), wk =   0.0333333
        k(   32) = (   0.2493951   0.4168269  -0.8308072), wk =   0.0333333
        k(   33) = (   0.2496119   0.4166929  -0.5893782), wk =   0.0333333
        k(   34) = (   0.2498287   0.4165588  -0.3479491), wk =   0.0333333
        k(   35) = (   0.2504018  -0.4189860   0.4497166), wk =   0.0333333
        k(   36) = (   0.2506186  -0.4191201   0.6911456), wk =   0.0333333
        k(   37) = (   0.2508354  -0.4192542   0.9325746), wk =   0.0333333
        k(   38) = (   0.2497515  -0.4185838  -0.2745706), wk =   0.0333333
        k(   39) = (   0.2499683  -0.4187179  -0.0331415), wk =   0.0333333
        k(   40) = (   0.2501851  -0.4188520   0.2082875), wk =   0.0333333
        k(   41) = (   0.2503127  -0.2101333   0.3106574), wk =   0.0333333
        k(   42) = (   0.2505295  -0.2102674   0.5520864), wk =   0.0333333
        k(   43) = (   0.2507463  -0.2104015   0.7935155), wk =   0.0333333
        k(   44) = (   0.2496624  -0.2097311  -0.4136297), wk =   0.0333333
        k(   45) = (   0.2498792  -0.2098652  -0.1722007), wk =   0.0333333
        k(   46) = (   0.2500960  -0.2099993   0.0692284), wk =   0.0333333
        k(   47) = (  -0.5004473   0.0025613  -0.3431965), wk =   0.0166667
        k(   48) = (  -0.5002305   0.0024272  -0.1017674), wk =   0.0333333
        k(   49) = (  -0.5000137   0.0022932   0.1396616), wk =   0.0333333
        k(   50) = (  -0.5010977   0.0029635  -1.0674836), wk =   0.0166667
        k(   51) = (  -0.5005364   0.2114140  -0.4822556), wk =   0.0333333
        k(   52) = (  -0.5003196   0.2112799  -0.2408266), wk =   0.0333333
        k(   53) = (  -0.5001028   0.2111459   0.0006025), wk =   0.0333333
        k(   54) = (  -0.5011868   0.2118162  -1.2065427), wk =   0.0333333
        k(   55) = (  -0.5009700   0.2116821  -0.9651137), wk =   0.0333333
        k(   56) = (  -0.5007532   0.2115481  -0.7236847), wk =   0.0333333
        k(   57) = (  -0.5006255   0.4202667  -0.6213148), wk =   0.0333333
        k(   58) = (  -0.5004087   0.4201326  -0.3798857), wk =   0.0333333
        k(   59) = (  -0.5001919   0.4199986  -0.1384567), wk =   0.0333333
        k(   60) = (  -0.5012759   0.4206689  -1.3456019), wk =   0.0333333
        k(   61) = (  -0.5010591   0.4205348  -1.1041729), wk =   0.0333333
        k(   62) = (  -0.5008423   0.4204008  -0.8627438), wk =   0.0333333

     Check: negative/imaginary core charge=   -0.000006    0.000000
     extrapolated charge   16.03377, renormalised to   16.00000

     total cpu time spent up to now is       19.8 secs

     Self-consistent Calculation

     iteration #  1     ecut=    60.00 Ry     beta=0.70
     CG style diagonalization
     ethr =  1.00E-06,  avg # of iterations =  4.0

     total cpu time spent up to now is       20.5 secs

     total energy              =    -188.85072320 Ry
     Harris-Foulkes estimate   =    -188.69335933 Ry
     estimated scf accuracy    <       0.00013378 Ry

     iteration #  2     ecut=    60.00 Ry     beta=0.70
     CG style diagonalization
     ethr =  8.36E-07,  avg # of iterations =  5.2

     total cpu time spent up to now is       21.5 secs

     total energy              =    -188.85079581 Ry
     Harris-Foulkes estimate   =    -188.85084604 Ry
     estimated scf accuracy    <       0.00008130 Ry

     iteration #  3     ecut=    60.00 Ry     beta=0.70
     CG style diagonalization
     ethr =  5.08E-07,  avg # of iterations =  3.7

     total cpu time spent up to now is       22.2 secs

     total energy              =    -188.85080537 Ry
     Harris-Foulkes estimate   =    -188.85081405 Ry
     estimated scf accuracy    <       0.00001060 Ry

     iteration #  4     ecut=    60.00 Ry     beta=0.70
     CG style diagonalization
     ethr =  6.63E-08,  avg # of iterations =  4.2

     total cpu time spent up to now is       23.0 secs

     total energy              =    -188.85080960 Ry
     Harris-Foulkes estimate   =    -188.85081019 Ry
     estimated scf accuracy    <       0.00000138 Ry

     iteration #  5     ecut=    60.00 Ry     beta=0.70
     CG style diagonalization
     ethr =  8.61E-09,  avg # of iterations =  4.8

     total cpu time spent up to now is       24.0 secs

     total energy              =    -188.85081057 Ry
     Harris-Foulkes estimate   =    -188.85081108 Ry
     estimated scf accuracy    <       0.00000112 Ry

     iteration #  6     ecut=    60.00 Ry     beta=0.70
     CG style diagonalization
     ethr =  7.02E-09,  avg # of iterations =  3.7

     total cpu time spent up to now is       24.7 secs

     total energy              =    -188.85081061 Ry
     Harris-Foulkes estimate   =    -188.85081077 Ry
     estimated scf accuracy    <       0.00000020 Ry

     iteration #  7     ecut=    60.00 Ry     beta=0.70
     CG style diagonalization
     ethr =  1.25E-09,  avg # of iterations =  5.8

     total cpu time spent up to now is       25.8 secs

     total energy              =    -188.85081105 Ry
     Harris-Foulkes estimate   =    -188.85081113 Ry
     estimated scf accuracy    <       0.00000016 Ry

     iteration #  8     ecut=    60.00 Ry     beta=0.70
     CG style diagonalization
     ethr =  1.02E-09,  avg # of iterations =  4.3

     total cpu time spent up to now is       26.7 secs

     total energy              =    -188.85081114 Ry
     Harris-Foulkes estimate   =    -188.85081116 Ry
     estimated scf accuracy    <       0.00000005 Ry

     iteration #  9     ecut=    60.00 Ry     beta=0.70
     CG style diagonalization
     ethr =  2.88E-10,  avg # of iterations =  5.4

     total cpu time spent up to now is       27.6 secs

     End of self-consistent calculation

          k = 0.0000 0.0000 0.0000 (  2411 PWs)   bands (ev):

   -48.0298 -19.9448 -19.9414 -19.9357 -11.6959   0.8059   0.9468   1.0350

          k = 0.0002-0.0001 0.2414 (  2407 PWs)   bands (ev):

   -48.0296 -19.9491 -19.9446 -19.9382 -11.5968   0.3168   0.6874   0.8603

          k = 0.0004-0.0003 0.4829 (  2411 PWs)   bands (ev):

   -48.0291 -19.9583 -19.9485 -19.9422 -11.4123  -0.4388   0.3737   0.5874

          k =-0.0007 0.0004-0.7243 (  2406 PWs)   bands (ev):

   -48.0289 -19.9617 -19.9503 -19.9440 -11.3279  -0.6913   0.2341   0.4628

          k =-0.0001 0.2089-0.1391 (  2408 PWs)   bands (ev):

   -48.0296 -19.9516 -19.9444 -19.9367 -11.5890   0.1537   0.7500   0.9192

          k = 0.0001 0.2087 0.1024 (  2424 PWs)   bands (ev):

   -48.0296 -19.9531 -19.9425 -19.9361 -11.5989   0.3402   0.7366   0.8443

          k = 0.0003 0.2086 0.3438 (  2407 PWs)   bands (ev):

   -48.0292 -19.9616 -19.9446 -19.9387 -11.4619  -0.3092   0.5480   0.6570

          k =-0.0007 0.2093-0.8633 (  2405 PWs)   bands (ev):

   -48.0289 -19.9636 -19.9503 -19.9419 -11.3347  -0.5561   0.2045   0.3461

          k =-0.0005 0.2091-0.6219 (  2409 PWs)   bands (ev):

   -48.0289 -19.9580 -19.9558 -19.9423 -11.3299  -0.5260   0.1185   0.3335

          k =-0.0003 0.2090-0.3805 (  2408 PWs)   bands (ev):

   -48.0292 -19.9575 -19.9490 -19.9398 -11.4468  -0.4047   0.5247   0.6096

          k =-0.0002 0.4177-0.2781 (  2410 PWs)   bands (ev):

   -48.0292 -19.9663 -19.9461 -19.9377 -11.4072  -0.8036   0.6237   0.7671

          k = 0.0000 0.4176-0.0367 (  2413 PWs)   bands (ev):

   -48.0292 -19.9616 -19.9473 -19.9370 -11.4503  -0.3721   0.4799   0.6949

          k = 0.0003 0.4174 0.2047 (  2423 PWs)   bands (ev):

   -48.0291 -19.9677 -19.9447 -19.9372 -11.4112  -0.6021   0.5736   0.6559

          k =-0.0008 0.4181-1.0024 (  2429 PWs)   bands (ev):

   -48.0290 -19.9717 -19.9456 -19.9383 -11.3445  -0.8370   0.4880   0.5551

          k =-0.0006 0.4180-0.7610 (  2407 PWs)   bands (ev):

   -48.0289 -19.9655 -19.9516 -19.9395 -11.3293  -0.4943  -0.0449   0.4888

          k =-0.0004 0.4178-0.5195 (  2412 PWs)   bands (ev):

   -48.0290 -19.9657 -19.9501 -19.9390 -11.3524  -0.7735   0.3677   0.5441

          k = 0.2502-0.0013 0.1716 (  2407 PWs)   bands (ev):

   -48.0295 -19.9492 -19.9448 -19.9420 -11.5577  -0.2134   0.8413   0.9178

          k = 0.2504-0.0014 0.4130 (  2411 PWs)   bands (ev):

   -48.0292 -19.9558 -19.9472 -19.9450 -11.4281  -0.6341   0.5022   0.7103

          k = 0.2507-0.0015 0.6545 (  2399 PWs)   bands (ev):

   -48.0289 -19.9576 -19.9505 -19.9477 -11.3364  -0.4913  -0.1380   0.5624

          k = 0.2496-0.0009-0.5527 (  2401 PWs)   bands (ev):

   -48.0290 -19.9640 -19.9488 -19.9419 -11.3506  -0.6407   0.1518   0.5905

          k = 0.2498-0.0010-0.3113 (  2417 PWs)   bands (ev):

   -48.0293 -19.9611 -19.9464 -19.9368 -11.4698  -0.4396   0.6374   0.7721

          k = 0.2500-0.0011-0.0698 (  2403 PWs)   bands (ev):

   -48.0296 -19.9501 -19.9446 -19.9385 -11.5845   0.1453   0.6848   0.9302

          k = 0.2501 0.2076 0.0325 (  2408 PWs)   bands (ev):

   -48.0294 -19.9517 -19.9457 -19.9405 -11.5335  -0.0185   0.5864   0.7780

          k = 0.2504 0.2074 0.2740 (  2410 PWs)   bands (ev):

   -48.0293 -19.9573 -19.9454 -19.9426 -11.4569  -0.4092   0.4323   0.7604

          k = 0.2506 0.2073 0.5154 (  2406 PWs)   bands (ev):

   -48.0290 -19.9599 -19.9487 -19.9461 -11.3515  -0.5008   0.0108   0.5158

          k = 0.2495 0.2080-0.6917 (  2402 PWs)   bands (ev):

   -48.0289 -19.9598 -19.9524 -19.9454 -11.3153  -0.3435  -0.1503   0.2672

          k = 0.2497 0.2078-0.4503 (  2413 PWs)   bands (ev):

   -48.0290 -19.9612 -19.9527 -19.9394 -11.3678  -0.5210   0.1167   0.5846

          k = 0.2499 0.2077-0.2089 (  2416 PWs)   bands (ev):

   -48.0293 -19.9562 -19.9492 -19.9376 -11.4813  -0.2460   0.4948   0.7302

          k = 0.2500 0.4164-0.1065 (  2418 PWs)   bands (ev):

   -48.0291 -19.9613 -19.9482 -19.9403 -11.4025  -0.5035   0.3360   0.6220

          k = 0.2503 0.4163 0.1349 (  2406 PWs)   bands (ev):

   -48.0291 -19.9623 -19.9473 -19.9411 -11.3937  -0.4717   0.3924   0.4676

          k = 0.2505 0.4162 0.3763 (  2410 PWs)   bands (ev):

   -48.0289 -19.9667 -19.9458 -19.9433 -11.3403  -0.5956   0.0735   0.5563

          k = 0.2494 0.4168-0.8308 (  2413 PWs)   bands (ev):

   -48.0289 -19.9652 -19.9484 -19.9438 -11.3183  -0.5214  -0.0012   0.3928

          k = 0.2496 0.4167-0.5894 (  2407 PWs)   bands (ev):

   -48.0289 -19.9614 -19.9544 -19.9411 -11.3246  -0.5010  -0.0286   0.4188

          k = 0.2498 0.4166-0.3479 (  2410 PWs)   bands (ev):

   -48.0290 -19.9634 -19.9510 -19.9400 -11.3556  -0.6402   0.1795   0.5724

          k = 0.2504-0.4190 0.4497 (  2404 PWs)   bands (ev):

   -48.0290 -19.9627 -19.9482 -19.9443 -11.3454  -0.6113  -0.0118   0.6413

          k = 0.2506-0.4191 0.6911 (  2408 PWs)   bands (ev):

   -48.0289 -19.9618 -19.9519 -19.9430 -11.3246  -0.4918   0.0417   0.3231

          k = 0.2508-0.4193 0.9326 (  2404 PWs)   bands (ev):

   -48.0289 -19.9661 -19.9514 -19.9400 -11.3185  -0.5450  -0.0004   0.4293

          k = 0.2498-0.4186-0.2746 (  2435 PWs)   bands (ev):

   -48.0290 -19.9673 -19.9476 -19.9394 -11.3559  -0.5974   0.2708   0.5081

          k = 0.2500-0.4187-0.0331 (  2425 PWs)   bands (ev):

   -48.0291 -19.9620 -19.9475 -19.9405 -11.4018  -0.4492   0.4292   0.4933

          k = 0.2502-0.4189 0.2083 (  2403 PWs)   bands (ev):

   -48.0291 -19.9612 -19.9480 -19.9426 -11.3856  -0.5609   0.2877   0.5743

          k = 0.2503-0.2101 0.3107 (  2398 PWs)   bands (ev):

   -48.0293 -19.9538 -19.9489 -19.9439 -11.4440  -0.4638   0.3097   0.8120

          k = 0.2505-0.2103 0.5521 (  2403 PWs)   bands (ev):

   -48.0290 -19.9542 -19.9529 -19.9479 -11.3467  -0.4679  -0.0493   0.4710

          k = 0.2507-0.2104 0.7935 (  2405 PWs)   bands (ev):

   -48.0289 -19.9602 -19.9536 -19.9436 -11.3163  -0.3738  -0.1179   0.2786

          k = 0.2497-0.2097-0.4136 (  2422 PWs)   bands (ev):

   -48.0290 -19.9646 -19.9502 -19.9379 -11.3759  -0.5307   0.2246   0.5867

          k = 0.2499-0.2099-0.1722 (  2415 PWs)   bands (ev):

   -48.0293 -19.9586 -19.9461 -19.9375 -11.4905  -0.1827   0.5996   0.6667

          k = 0.2501-0.2100 0.0692 (  2416 PWs)   bands (ev):

   -48.0294 -19.9513 -19.9444 -19.9430 -11.5277  -0.0698   0.6479   0.7187

          k =-0.5004 0.0026-0.3432 (  2398 PWs)   bands (ev):

   -48.0293 -19.9611 -19.9460 -19.9426 -11.4123  -0.9882   0.7410   0.8097

          k =-0.5002 0.0024-0.1018 (  2396 PWs)   bands (ev):

   -48.0292 -19.9555 -19.9493 -19.9444 -11.4151  -0.6783   0.3776   0.7717

          k =-0.5000 0.0023 0.1397 (  2408 PWs)   bands (ev):

   -48.0291 -19.9625 -19.9470 -19.9416 -11.3952  -0.6271   0.2726   0.7408

          k =-0.5011 0.0030-1.0675 (  2418 PWs)   bands (ev):

   -48.0291 -19.9693 -19.9467 -19.9373 -11.3723  -0.9450   0.6029   0.7306

          k =-0.5005 0.2114-0.4823 (  2398 PWs)   bands (ev):

   -48.0291 -19.9569 -19.9489 -19.9459 -11.3854  -0.7241   0.3096   0.6817

          k =-0.5003 0.2113-0.2408 (  2399 PWs)   bands (ev):

   -48.0291 -19.9564 -19.9513 -19.9446 -11.3820  -0.7521   0.3743   0.6242

          k =-0.5001 0.2111 0.0006 (  2403 PWs)   bands (ev):

   -48.0291 -19.9572 -19.9484 -19.9463 -11.3811  -0.4868   0.1992   0.5194

          k =-0.5012 0.2118-1.2065 (  2403 PWs)   bands (ev):

   -48.0290 -19.9645 -19.9501 -19.9398 -11.3563  -0.6868   0.2958   0.5391

          k =-0.5010 0.2117-0.9651 (  2407 PWs)   bands (ev):

   -48.0290 -19.9642 -19.9515 -19.9389 -11.3540  -0.7050   0.3342   0.4960

          k =-0.5008 0.2115-0.7237 (  2396 PWs)   bands (ev):

   -48.0291 -19.9560 -19.9516 -19.9442 -11.3821  -0.4793   0.2014   0.5064

          k =-0.5006 0.4203-0.6213 (  2411 PWs)   bands (ev):

   -48.0289 -19.9604 -19.9495 -19.9451 -11.3399  -0.6309   0.1556   0.5075

          k =-0.5004 0.4201-0.3799 (  2403 PWs)   bands (ev):

   -48.0289 -19.9585 -19.9492 -19.9488 -11.3280  -0.3891  -0.1492   0.3794

          k =-0.5002 0.4200-0.1385 (  2411 PWs)   bands (ev):

   -48.0289 -19.9605 -19.9484 -19.9472 -11.3306  -0.5432   0.0903   0.3861

          k =-0.5013 0.4207-1.3456 (  2405 PWs)   bands (ev):

   -48.0289 -19.9627 -19.9502 -19.9432 -11.3290  -0.6343   0.2713   0.3573

          k =-0.5011 0.4205-1.1042 (  2415 PWs)   bands (ev):

   -48.0289 -19.9605 -19.9550 -19.9422 -11.3140  -0.3626  -0.1387   0.2878

          k =-0.5008 0.4204-0.8627 (  2402 PWs)   bands (ev):

   -48.0289 -19.9597 -19.9540 -19.9425 -11.3275  -0.5508   0.1784   0.2862

!    total energy              =    -188.85081122 Ry
     Harris-Foulkes estimate   =    -188.85081122 Ry
     estimated scf accuracy    <          8.1E-09 Ry

     total all-electron energy =     -1248.137804 Ry

     The total energy is the sum of the following terms:

     one-electron contribution =     -81.57033080 Ry
     hartree contribution      =      42.46423088 Ry
     xc contribution           =     -24.67427944 Ry
     ewald contribution        =     -68.45077468 Ry
     one-center paw contrib.   =     -56.61965717 Ry

     convergence has been achieved in   9 iterations

     Forces acting on atoms (Ry/au):

     atom    1 type  1   force =    -0.00040441   -0.00039121   -0.00006560
     atom    2 type  2   force =     0.00040441    0.00039121    0.00006560

     Total force =     0.000801     Total SCF correction =     0.000037


     entering subroutine stress ...

          total   stress  (Ry/bohr**3)                   (kbar)     P=    3.74
  -0.00001297  -0.00000616  -0.00003395         -1.91     -0.91     -4.99
  -0.00000616   0.00006021   0.00002143         -0.91      8.86      3.15
  -0.00003395   0.00002143   0.00002907         -4.99      3.15      4.28


     number of scf cycles    =   2
     number of bfgs steps    =   1

     enthalpy old            =    -188.8507459280 Ry
     enthalpy new            =    -188.8508112154 Ry

     CASE: enthalpy_new < enthalpy_old


     WARNING: bfgs curvature condition failed, Theta= 0.861
     new trust radius        =       0.0091343614 bohr
     new conv_thr            =            1.0E-10 Ry

     new unit-cell volume =    308.55657 a.u.^3 (    45.72337 Ang^3 )

CELL_PARAMETERS (alat=  7.74868153)
   0.999225384  -0.000423288  -0.002268765
   0.004297539   0.960308901   0.001343266
  -0.472356424   0.461727328   0.692878838

ATOMIC_POSITIONS (crystal)
Na       0.449717896   0.954800276   0.716817211
Cl       0.947487062   0.452716250   0.716436422



     Writing output data file NaCl_pegs+pwscf.save
     NEW-OLD atomic charge density approx. for the potential
     NEW k-points:
        k(    1) = (   0.0000000   0.0000000   0.0000000), wk =   0.0166667
        k(    2) = (   0.0005474  -0.0003398   0.2411419), wk =   0.0333333
        k(    3) = (   0.0010947  -0.0006795   0.4822837), wk =   0.0333333
        k(    4) = (  -0.0016421   0.0010193  -0.7234256), wk =   0.0166667
        k(    5) = (  -0.0002275   0.2084619  -0.1390719), wk =   0.0333333
        k(    6) = (   0.0003199   0.2081221   0.1020700), wk =   0.0333333
        k(    7) = (   0.0008673   0.2077824   0.3432118), wk =   0.0333333
        k(    8) = (  -0.0018696   0.2094811  -0.8624975), wk =   0.0333333
        k(    9) = (  -0.0013222   0.2091414  -0.6213556), wk =   0.0333333
        k(   10) = (  -0.0007748   0.2088016  -0.3802138), wk =   0.0333333
        k(   11) = (  -0.0004549   0.4169237  -0.2781438), wk =   0.0333333
        k(   12) = (   0.0000925   0.4165840  -0.0370020), wk =   0.0333333
        k(   13) = (   0.0006398   0.4162442   0.2041399), wk =   0.0333333
        k(   14) = (  -0.0020970   0.4179430  -1.0015694), wk =   0.0333333
        k(   15) = (  -0.0015497   0.4176032  -0.7604276), wk =   0.0333333
        k(   16) = (  -0.0010023   0.4172635  -0.5192857), wk =   0.0333333
        k(   17) = (   0.2505832  -0.0013616   0.1717375), wk =   0.0333333
        k(   18) = (   0.2511305  -0.0017014   0.4128793), wk =   0.0333333
        k(   19) = (   0.2516779  -0.0020411   0.6540212), wk =   0.0333333
        k(   20) = (   0.2489410  -0.0003424  -0.5516881), wk =   0.0333333
        k(   21) = (   0.2494884  -0.0006821  -0.3105463), wk =   0.0333333
        k(   22) = (   0.2500358  -0.0010219  -0.0694044), wk =   0.0333333
        k(   23) = (   0.2503557   0.2071002   0.0326656), wk =   0.0333333
        k(   24) = (   0.2509031   0.2067605   0.2738074), wk =   0.0333333
        k(   25) = (   0.2514505   0.2064207   0.5149493), wk =   0.0333333
        k(   26) = (   0.2487136   0.2081195  -0.6907600), wk =   0.0333333
        k(   27) = (   0.2492610   0.2077798  -0.4496182), wk =   0.0333333
        k(   28) = (   0.2498083   0.2074400  -0.2084763), wk =   0.0333333
        k(   29) = (   0.2501282   0.4155621  -0.1064063), wk =   0.0333333
        k(   30) = (   0.2506756   0.4152224   0.1347355), wk =   0.0333333
        k(   31) = (   0.2512230   0.4148826   0.3758774), wk =   0.0333333
        k(   32) = (   0.2484861   0.4165814  -0.8298319), wk =   0.0333333
        k(   33) = (   0.2490335   0.4162416  -0.5886901), wk =   0.0333333
        k(   34) = (   0.2495809   0.4159019  -0.3475482), wk =   0.0333333
        k(   35) = (   0.2510381  -0.4182854   0.4498813), wk =   0.0333333
        k(   36) = (   0.2515855  -0.4186251   0.6910232), wk =   0.0333333
        k(   37) = (   0.2521328  -0.4189649   0.9321650), wk =   0.0333333
        k(   38) = (   0.2493960  -0.4172661  -0.2735443), wk =   0.0333333
        k(   39) = (   0.2499433  -0.4176059  -0.0324024), wk =   0.0333333
        k(   40) = (   0.2504907  -0.4179456   0.2087394), wk =   0.0333333
        k(   41) = (   0.2508106  -0.2098235   0.3108094), wk =   0.0333333
        k(   42) = (   0.2513580  -0.2101632   0.5519513), wk =   0.0333333
        k(   43) = (   0.2519054  -0.2105030   0.7930931), wk =   0.0333333
        k(   44) = (   0.2491685  -0.2088042  -0.4126162), wk =   0.0333333
        k(   45) = (   0.2497159  -0.2091440  -0.1714743), wk =   0.0333333
        k(   46) = (   0.2502632  -0.2094837   0.0696675), wk =   0.0333333
        k(   47) = (  -0.5011663   0.0027232  -0.3434750), wk =   0.0166667
        k(   48) = (  -0.5006189   0.0023835  -0.1023331), wk =   0.0333333
        k(   49) = (  -0.5000716   0.0020437   0.1388088), wk =   0.0333333
        k(   50) = (  -0.5028084   0.0037425  -1.0669006), wk =   0.0166667
        k(   51) = (  -0.5013938   0.2111851  -0.4825469), wk =   0.0333333
        k(   52) = (  -0.5008464   0.2108454  -0.2414050), wk =   0.0333333
        k(   53) = (  -0.5002990   0.2105056  -0.0002631), wk =   0.0333333
        k(   54) = (  -0.5030359   0.2122044  -1.2059725), wk =   0.0333333
        k(   55) = (  -0.5024885   0.2118646  -0.9648306), wk =   0.0333333
        k(   56) = (  -0.5019412   0.2115249  -0.7236887), wk =   0.0333333
        k(   57) = (  -0.5016212   0.4196470  -0.6216188), wk =   0.0333333
        k(   58) = (  -0.5010739   0.4193072  -0.3804769), wk =   0.0333333
        k(   59) = (  -0.5005265   0.4189675  -0.1393350), wk =   0.0333333
        k(   60) = (  -0.5032634   0.4206663  -1.3450444), wk =   0.0333333
        k(   61) = (  -0.5027160   0.4203265  -1.1039025), wk =   0.0333333
        k(   62) = (  -0.5021686   0.4199867  -0.8627606), wk =   0.0333333

     Check: negative/imaginary core charge=   -0.000005    0.000000
     extrapolated charge   16.04856, renormalised to   16.00000

     total cpu time spent up to now is       28.5 secs

     Self-consistent Calculation

     iteration #  1     ecut=    60.00 Ry     beta=0.70
     CG style diagonalization
     ethr =  1.00E-06,  avg # of iterations =  4.2

     total cpu time spent up to now is       29.3 secs

     total energy              =    -188.85072837 Ry
     Harris-Foulkes estimate   =    -188.62433774 Ry
     estimated scf accuracy    <       0.00028133 Ry

     iteration #  2     ecut=    60.00 Ry     beta=0.70
     CG style diagonalization
     ethr =  1.76E-06,  avg # of iterations =  5.1

     total cpu time spent up to now is       30.3 secs

     total energy              =    -188.85086556 Ry
     Harris-Foulkes estimate   =    -188.85096744 Ry
     estimated scf accuracy    <       0.00016129 Ry

     iteration #  3     ecut=    60.00 Ry     beta=0.70
     CG style diagonalization
     ethr =  1.01E-06,  avg # of iterations =  3.8

     total cpu time spent up to now is       31.3 secs

     total energy              =    -188.85088868 Ry
     Harris-Foulkes estimate   =    -188.85090416 Ry
     estimated scf accuracy    <       0.00001896 Ry

     iteration #  4     ecut=    60.00 Ry     beta=0.70
     CG style diagonalization
     ethr =  1.19E-07,  avg # of iterations =  4.3

     total cpu time spent up to now is       32.2 secs

     total energy              =    -188.85089727 Ry
     Harris-Foulkes estimate   =    -188.85089857 Ry
     estimated scf accuracy    <       0.00000301 Ry

     iteration #  5     ecut=    60.00 Ry     beta=0.70
     CG style diagonalization
     ethr =  1.88E-08,  avg # of iterations =  4.7

     total cpu time spent up to now is       33.1 secs

     total energy              =    -188.85089913 Ry
     Harris-Foulkes estimate   =    -188.85090001 Ry
     estimated scf accuracy    <       0.00000190 Ry

     iteration #  6     ecut=    60.00 Ry     beta=0.70
     CG style diagonalization
     ethr =  1.19E-08,  avg # of iterations =  3.9

     total cpu time spent up to now is       33.9 secs

     total energy              =    -188.85089947 Ry
     Harris-Foulkes estimate   =    -188.85089966 Ry
     estimated scf accuracy    <       0.00000026 Ry

     iteration #  7     ecut=    60.00 Ry     beta=0.70
     CG style diagonalization
     ethr =  1.65E-09,  avg # of iterations =  6.3

     total cpu time spent up to now is       35.0 secs

     total energy              =    -188.85090054 Ry
     Harris-Foulkes estimate   =    -188.85090063 Ry
     estimated scf accuracy    <       0.00000018 Ry

     iteration #  8     ecut=    60.00 Ry     beta=0.70
     CG style diagonalization
     c_bands:  1 eigenvalues not converged
     c_bands:  1 eigenvalues not converged
     ethr =  1.15E-09,  avg # of iterations =  4.8

     total cpu time spent up to now is       36.0 secs

     total energy              =    -188.85090071 Ry
     Harris-Foulkes estimate   =    -188.85090072 Ry
     estimated scf accuracy    <       0.00000003 Ry

     iteration #  9     ecut=    60.00 Ry     beta=0.70
     CG style diagonalization
     ethr =  1.78E-10,  avg # of iterations =  6.8

     total cpu time spent up to now is       37.3 secs

     total energy              =    -188.85090110 Ry
     Harris-Foulkes estimate   =    -188.85090091 Ry
     estimated scf accuracy    <       0.00000003 Ry

     iteration # 10     ecut=    60.00 Ry     beta=0.70
     CG style diagonalization
     c_bands:  1 eigenvalues not converged
     ethr =  1.78E-10,  avg # of iterations =  5.9

     total cpu time spent up to now is       38.6 secs

     total energy              =    -188.85090147 Ry
     Harris-Foulkes estimate   =    -188.85090143 Ry
     estimated scf accuracy    <       0.00000132 Ry

     iteration # 11     ecut=    60.00 Ry     beta=0.70
     CG style diagonalization
     ethr =  1.78E-10,  avg # of iterations =  4.9

     total cpu time spent up to now is       39.6 secs

     total energy              =    -188.85090069 Ry
     Harris-Foulkes estimate   =    -188.85090152 Ry
     estimated scf accuracy    <       0.00000154 Ry

     iteration # 12     ecut=    60.00 Ry     beta=0.70
     CG style diagonalization
     ethr =  1.78E-10,  avg # of iterations =  5.2

     total cpu time spent up to now is       40.6 secs

     total energy              =    -188.85090089 Ry
     Harris-Foulkes estimate   =    -188.85090091 Ry
     estimated scf accuracy    <       0.00000003 Ry

     iteration # 13     ecut=    60.00 Ry     beta=0.70
     CG style diagonalization
     ethr =  1.68E-10,  avg # of iterations =  5.3

     total cpu time spent up to now is       41.6 secs

     total energy              =    -188.85090095 Ry
     Harris-Foulkes estimate   =    -188.85090096 Ry
     estimated scf accuracy    <       0.00000001 Ry

     iteration # 14     ecut=    60.00 Ry     beta=0.70
     CG style diagonalization
     ethr =  8.75E-11,  avg # of iterations =  4.2

     total cpu time spent up to now is       42.5 secs

     total energy              =    -188.85090096 Ry
     Harris-Foulkes estimate   =    -188.85090096 Ry
     estimated scf accuracy    <          5.0E-09 Ry

     iteration # 15     ecut=    60.00 Ry     beta=0.70
     CG style diagonalization
     ethr =  3.14E-11,  avg # of iterations =  4.5

     total cpu time spent up to now is       43.4 secs

     total energy              =    -188.85090096 Ry
     Harris-Foulkes estimate   =    -188.85090096 Ry
     estimated scf accuracy    <          2.6E-09 Ry

     iteration # 16     ecut=    60.00 Ry     beta=0.70
     CG style diagonalization
     ethr =  1.65E-11,  avg # of iterations =  4.4

     total cpu time spent up to now is       44.3 secs

     total energy              =    -188.85090097 Ry
     Harris-Foulkes estimate   =    -188.85090097 Ry
     estimated scf accuracy    <          2.3E-09 Ry

     iteration # 17     ecut=    60.00 Ry     beta=0.70
     CG style diagonalization
     ethr =  1.41E-11,  avg # of iterations =  3.6

     total cpu time spent up to now is       45.0 secs

     total energy              =    -188.85090097 Ry
     Harris-Foulkes estimate   =    -188.85090097 Ry
     estimated scf accuracy    <          3.0E-09 Ry

     iteration # 18     ecut=    60.00 Ry     beta=0.70
     CG style diagonalization
     ethr =  1.41E-11,  avg # of iterations =  3.9

     total cpu time spent up to now is       45.8 secs

     total energy              =    -188.85090108 Ry
     Harris-Foulkes estimate   =    -188.85090097 Ry
     estimated scf accuracy    <       0.00000002 Ry

     iteration # 19     ecut=    60.00 Ry     beta=0.70
     CG style diagonalization
     ethr =  1.41E-11,  avg # of iterations =  5.5

     total cpu time spent up to now is       47.0 secs

     total energy              =    -188.85090087 Ry
     Harris-Foulkes estimate   =    -188.85090113 Ry
     estimated scf accuracy    <       0.00000045 Ry

     iteration # 20     ecut=    60.00 Ry     beta=0.70
     CG style diagonalization
     ethr =  1.41E-11,  avg # of iterations =  6.6

     total cpu time spent up to now is       48.3 secs

     total energy              =    -188.85090097 Ry
     Harris-Foulkes estimate   =    -188.85090097 Ry
     estimated scf accuracy    <          3.2E-09 Ry

     iteration # 21     ecut=    60.00 Ry     beta=0.70
     CG style diagonalization
     ethr =  1.41E-11,  avg # of iterations =  4.3

     total cpu time spent up to now is       49.2 secs

     total energy              =    -188.85090097 Ry
     Harris-Foulkes estimate   =    -188.85090097 Ry
     estimated scf accuracy    <          5.3E-10 Ry

     iteration # 22     ecut=    60.00 Ry     beta=0.70
     CG style diagonalization
     ethr =  3.29E-12,  avg # of iterations =  4.0

     total cpu time spent up to now is       50.0 secs

     total energy              =    -188.85090097 Ry
     Harris-Foulkes estimate   =    -188.85090097 Ry
     estimated scf accuracy    <          3.0E-10 Ry

     iteration # 23     ecut=    60.00 Ry     beta=0.70
     CG style diagonalization
     ethr =  1.87E-12,  avg # of iterations =  3.8

     total cpu time spent up to now is       50.7 secs

     End of self-consistent calculation

          k = 0.0000 0.0000 0.0000 (  2411 PWs)   bands (ev):

   -48.0567 -19.9713 -19.9681 -19.9628 -11.7134   0.7909   0.9200   1.0028

          k = 0.0005-0.0003 0.2411 (  2407 PWs)   bands (ev):

   -48.0564 -19.9755 -19.9712 -19.9652 -11.6153   0.2965   0.6691   0.8298

          k = 0.0011-0.0007 0.4823 (  2411 PWs)   bands (ev):

   -48.0559 -19.9845 -19.9750 -19.9692 -11.4326  -0.4561   0.3591   0.5573

          k =-0.0016 0.0010-0.7234 (  2406 PWs)   bands (ev):

   -48.0557 -19.9879 -19.9768 -19.9710 -11.3491  -0.7073   0.2206   0.4328

          k =-0.0002 0.2085-0.1391 (  2408 PWs)   bands (ev):

   -48.0564 -19.9780 -19.9710 -19.9638 -11.6076   0.1326   0.7329   0.8891

          k = 0.0003 0.2081 0.1021 (  2424 PWs)   bands (ev):

   -48.0564 -19.9794 -19.9691 -19.9632 -11.6180   0.3144   0.7209   0.8195

          k = 0.0009 0.2078 0.3432 (  2407 PWs)   bands (ev):

   -48.0561 -19.9878 -19.9711 -19.9657 -11.4826  -0.3297   0.5332   0.6328

          k =-0.0019 0.2095-0.8625 (  2405 PWs)   bands (ev):

   -48.0557 -19.9897 -19.9768 -19.9689 -11.3565  -0.5732   0.1802   0.3316

          k =-0.0013 0.2091-0.6214 (  2409 PWs)   bands (ev):

   -48.0557 -19.9844 -19.9822 -19.9693 -11.3512  -0.5444   0.0948   0.3186

          k =-0.0008 0.2088-0.3802 (  2408 PWs)   bands (ev):

   -48.0561 -19.9839 -19.9754 -19.9668 -11.4667  -0.4246   0.5081   0.5836

          k =-0.0005 0.4169-0.2781 (  2410 PWs)   bands (ev):

   -48.0560 -19.9925 -19.9726 -19.9647 -11.4278  -0.8194   0.6065   0.7387

          k = 0.0001 0.4166-0.0370 (  2413 PWs)   bands (ev):

   -48.0561 -19.9878 -19.9738 -19.9641 -11.4710  -0.3889   0.4560   0.6754

          k = 0.0006 0.4162 0.2041 (  2423 PWs)   bands (ev):

   -48.0560 -19.9938 -19.9712 -19.9643 -11.4332  -0.6210   0.5567   0.6364

          k =-0.0021 0.4179-1.0016 (  2429 PWs)   bands (ev):

   -48.0558 -19.9977 -19.9721 -19.9654 -11.3674  -0.8545   0.4717   0.5367

          k =-0.0015 0.4176-0.7604 (  2407 PWs)   bands (ev):

   -48.0558 -19.9916 -19.9781 -19.9665 -11.3516  -0.5124  -0.0643   0.4728

          k =-0.0010 0.4173-0.5193 (  2412 PWs)   bands (ev):

   -48.0559 -19.9919 -19.9766 -19.9660 -11.3737  -0.7898   0.3448   0.5257

          k = 0.2506-0.0014 0.1717 (  2407 PWs)   bands (ev):

   -48.0564 -19.9760 -19.9714 -19.9687 -11.5754  -0.2268   0.8137   0.8851

          k = 0.2511-0.0017 0.4129 (  2411 PWs)   bands (ev):

   -48.0561 -19.9825 -19.9738 -19.9716 -11.4468  -0.6478   0.4785   0.6789

          k = 0.2517-0.0020 0.6540 (  2399 PWs)   bands (ev):

   -48.0558 -19.9839 -19.9773 -19.9744 -11.3567  -0.5078  -0.1539   0.5325

          k = 0.2489-0.0003-0.5517 (  2401 PWs)   bands (ev):

   -48.0558 -19.9901 -19.9753 -19.9690 -11.3718  -0.6542   0.1339   0.5620

          k = 0.2495-0.0007-0.3105 (  2417 PWs)   bands (ev):

   -48.0561 -19.9873 -19.9729 -19.9639 -11.4901  -0.4565   0.6199   0.7439

          k = 0.2500-0.0010-0.0694 (  2403 PWs)   bands (ev):

   -48.0564 -19.9766 -19.9711 -19.9656 -11.6029   0.1244   0.6658   0.9005

          k = 0.2504 0.2071 0.0327 (  2408 PWs)   bands (ev):

   -48.0563 -19.9782 -19.9723 -19.9675 -11.5521  -0.0372   0.5686   0.7464

          k = 0.2509 0.2068 0.2738 (  2410 PWs)   bands (ev):

   -48.0561 -19.9837 -19.9723 -19.9693 -11.4761  -0.4250   0.4076   0.7348

          k = 0.2515 0.2064 0.5149 (  2406 PWs)   bands (ev):

   -48.0558 -19.9861 -19.9756 -19.9726 -11.3720  -0.5172  -0.0086   0.4906

          k = 0.2487 0.2081-0.6908 (  2402 PWs)   bands (ev):

   -48.0557 -19.9859 -19.9789 -19.9724 -11.3367  -0.3588  -0.1695   0.2437

          k = 0.2493 0.2078-0.4496 (  2413 PWs)   bands (ev):

   -48.0559 -19.9875 -19.9791 -19.9665 -11.3890  -0.5378   0.0960   0.5637

          k = 0.2498 0.2074-0.2085 (  2416 PWs)   bands (ev):

   -48.0562 -19.9826 -19.9756 -19.9647 -11.5010  -0.2661   0.4743   0.7074

          k = 0.2501 0.4156-0.1064 (  2418 PWs)   bands (ev):

   -48.0559 -19.9875 -19.9748 -19.9674 -11.4230  -0.5185   0.3193   0.5915

          k = 0.2507 0.4152 0.1347 (  2406 PWs)   bands (ev):

   -48.0559 -19.9885 -19.9738 -19.9681 -11.4145  -0.4902   0.3762   0.4430

          k = 0.2512 0.4149 0.3759 (  2410 PWs)   bands (ev):

   -48.0558 -19.9927 -19.9723 -19.9703 -11.3621  -0.6142   0.0576   0.5346

          k = 0.2485 0.4166-0.8298 (  2413 PWs)   bands (ev):

   -48.0557 -19.9912 -19.9749 -19.9708 -11.3404  -0.5365  -0.0207   0.3715

          k = 0.2490 0.4162-0.5887 (  2407 PWs)   bands (ev):

   -48.0557 -19.9876 -19.9807 -19.9682 -11.3464  -0.5188  -0.0471   0.3989

          k = 0.2496 0.4159-0.3475 (  2410 PWs)   bands (ev):

   -48.0559 -19.9896 -19.9774 -19.9671 -11.3767  -0.6557   0.1578   0.5506

          k = 0.2510-0.4183 0.4499 (  2404 PWs)   bands (ev):

   -48.0558 -19.9889 -19.9748 -19.9712 -11.3660  -0.6265  -0.0283   0.6115

          k = 0.2516-0.4186 0.6910 (  2408 PWs)   bands (ev):

   -48.0557 -19.9879 -19.9784 -19.9700 -11.3460  -0.5077   0.0233   0.2999

          k = 0.2521-0.4190 0.9322 (  2404 PWs)   bands (ev):

   -48.0557 -19.9922 -19.9779 -19.9670 -11.3410  -0.5639  -0.0194   0.4141

          k = 0.2494-0.4173-0.2735 (  2435 PWs)   bands (ev):

   -48.0558 -19.9932 -19.9741 -19.9665 -11.3782  -0.6126   0.2504   0.4887

          k = 0.2499-0.4176-0.0324 (  2425 PWs)   bands (ev):

   -48.0559 -19.9881 -19.9740 -19.9676 -11.4231  -0.4656   0.4081   0.4715

          k = 0.2505-0.4179 0.2087 (  2403 PWs)   bands (ev):

   -48.0559 -19.9874 -19.9745 -19.9696 -11.4061  -0.5782   0.2684   0.5500

          k = 0.2508-0.2098 0.3108 (  2398 PWs)   bands (ev):

   -48.0561 -19.9805 -19.9755 -19.9706 -11.4628  -0.4795   0.2883   0.7814

          k = 0.2514-0.2102 0.5520 (  2403 PWs)   bands (ev):

   -48.0558 -19.9807 -19.9794 -19.9746 -11.3667  -0.4837  -0.0689   0.4442

          k = 0.2519-0.2105 0.7931 (  2405 PWs)   bands (ev):

   -48.0557 -19.9864 -19.9800 -19.9707 -11.3378  -0.3907  -0.1369   0.2579

          k = 0.2492-0.2088-0.4126 (  2422 PWs)   bands (ev):

   -48.0559 -19.9906 -19.9767 -19.9650 -11.3977  -0.5456   0.2015   0.5685

          k = 0.2497-0.2091-0.1715 (  2415 PWs)   bands (ev):

   -48.0561 -19.9848 -19.9727 -19.9645 -11.5109  -0.2009   0.5759   0.6469

          k = 0.2503-0.2095 0.0697 (  2416 PWs)   bands (ev):

   -48.0563 -19.9777 -19.9710 -19.9699 -11.5465  -0.0880   0.6246   0.6928

          k =-0.5012 0.0027-0.3435 (  2398 PWs)   bands (ev):

   -48.0561 -19.9879 -19.9726 -19.9693 -11.4302  -1.0001   0.7126   0.7765

          k =-0.5006 0.0024-0.1023 (  2396 PWs)   bands (ev):

   -48.0561 -19.9824 -19.9758 -19.9710 -11.4337  -0.6923   0.3529   0.7413

          k =-0.5001 0.0020 0.1388 (  2408 PWs)   bands (ev):

   -48.0560 -19.9888 -19.9735 -19.9686 -11.4155  -0.6451   0.2565   0.7128

          k =-0.5028 0.0037-1.0669 (  2418 PWs)   bands (ev):

   -48.0559 -19.9954 -19.9732 -19.9644 -11.3936  -0.9601   0.5855   0.7037

          k =-0.5014 0.2112-0.4825 (  2398 PWs)   bands (ev):

   -48.0560 -19.9837 -19.9754 -19.9725 -11.4042  -0.7377   0.2874   0.6495

          k =-0.5008 0.2108-0.2414 (  2399 PWs)   bands (ev):

   -48.0560 -19.9832 -19.9777 -19.9712 -11.4010  -0.7664   0.3486   0.5973

          k =-0.5003 0.2105-0.0003 (  2403 PWs)   bands (ev):

   -48.0559 -19.9836 -19.9751 -19.9731 -11.4012  -0.5051   0.1809   0.4937

          k =-0.5030 0.2122-1.2060 (  2403 PWs)   bands (ev):

   -48.0558 -19.9907 -19.9765 -19.9669 -11.3777  -0.7031   0.2747   0.5186

          k =-0.5025 0.2119-0.9648 (  2407 PWs)   bands (ev):

   -48.0558 -19.9904 -19.9778 -19.9660 -11.3753  -0.7230   0.3120   0.4791

          k =-0.5019 0.2115-0.7237 (  2396 PWs)   bands (ev):

   -48.0559 -19.9825 -19.9780 -19.9711 -11.4020  -0.4982   0.1830   0.4812

          k =-0.5016 0.4196-0.6216 (  2411 PWs)   bands (ev):

   -48.0558 -19.9867 -19.9760 -19.9720 -11.3603  -0.6474   0.1421   0.4758

          k =-0.5011 0.4193-0.3805 (  2403 PWs)   bands (ev):

   -48.0558 -19.9847 -19.9758 -19.9757 -11.3486  -0.4063  -0.1656   0.3527

          k =-0.5005 0.4190-0.1393 (  2411 PWs)   bands (ev):

   -48.0557 -19.9866 -19.9750 -19.9743 -11.3517  -0.5611   0.0726   0.3628

          k =-0.5033 0.4207-1.3450 (  2405 PWs)   bands (ev):

   -48.0557 -19.9888 -19.9767 -19.9703 -11.3507  -0.6506   0.2491   0.3379

          k =-0.5027 0.4203-1.1039 (  2415 PWs)   bands (ev):

   -48.0557 -19.9866 -19.9814 -19.9693 -11.3359  -0.3816  -0.1564   0.2688

          k =-0.5022 0.4200-0.8628 (  2402 PWs)   bands (ev):

   -48.0557 -19.9859 -19.9805 -19.9695 -11.3487  -0.5678   0.1544   0.2693

!    total energy              =    -188.85090097 Ry
     Harris-Foulkes estimate   =    -188.85090097 Ry
     estimated scf accuracy    <          8.4E-11 Ry

     total all-electron energy =     -1248.137893 Ry

     The total energy is the sum of the following terms:

     one-electron contribution =     -81.68947778 Ry
     hartree contribution      =      42.50883639 Ry
     xc contribution           =     -24.67315778 Ry
     ewald contribution        =     -68.37747433 Ry
     one-center paw contrib.   =     -56.61962746 Ry

     convergence has been achieved in  23 iterations

     Forces acting on atoms (Ry/au):

     atom    1 type  1   force =    -0.00039696   -0.00038865   -0.00006344
     atom    2 type  2   force =     0.00039696    0.00038865    0.00006344

     Total force =     0.000791     Total SCF correction =     0.000007


     entering subroutine stress ...

          total   stress  (Ry/bohr**3)                   (kbar)     P=    2.15
  -0.00002101  -0.00000537  -0.00003109         -3.09     -0.79     -4.57
  -0.00000537   0.00004686   0.00002020         -0.79      6.89      2.97
  -0.00003109   0.00002020   0.00001797         -4.57      2.97      2.64


     number of scf cycles    =   3
     number of bfgs steps    =   2

     enthalpy old            =    -188.8508112154 Ry
     enthalpy new            =    -188.8509009667 Ry

     CASE: enthalpy_new < enthalpy_old

     new trust radius        =       0.0136827581 bohr
     new conv_thr            =            1.0E-10 Ry

     new unit-cell volume =    309.78493 a.u.^3 (    45.90539 Ang^3 )

CELL_PARAMETERS (alat=  7.74868153)
   0.998039104  -0.000819514  -0.004492968
   0.003912822   0.963776356   0.002686688
  -0.473513813   0.464554269   0.695665935

ATOMIC_POSITIONS (crystal)
Na       0.449557168   0.954667908   0.716783409
Cl       0.947647789   0.452848618   0.716470224



     Writing output data file NaCl_pegs+pwscf.save
     NEW-OLD atomic charge density approx. for the potential
     NEW k-points:
        k(    1) = (   0.0000000   0.0000000   0.0000000), wk =   0.0166667
        k(    2) = (   0.0010833  -0.0006756   0.2407671), wk =   0.0333333
        k(    3) = (   0.0021667  -0.0013512   0.4815342), wk =   0.0333333
        k(    4) = (  -0.0032500   0.0020267  -0.7223013), wk =   0.0166667
        k(    5) = (  -0.0004557   0.2079068  -0.1391469), wk =   0.0333333
        k(    6) = (   0.0006276   0.2072312   0.1016202), wk =   0.0333333
        k(    7) = (   0.0017110   0.2065556   0.3423873), wk =   0.0333333
        k(    8) = (  -0.0037057   0.2099335  -0.8614482), wk =   0.0333333
        k(    9) = (  -0.0026224   0.2092579  -0.6206811), wk =   0.0333333
        k(   10) = (  -0.0015390   0.2085823  -0.3799140), wk =   0.0333333
        k(   11) = (  -0.0009114   0.4158135  -0.2782938), wk =   0.0333333
        k(   12) = (   0.0001719   0.4151380  -0.0375267), wk =   0.0333333
        k(   13) = (   0.0012553   0.4144624   0.2032404), wk =   0.0333333
        k(   14) = (  -0.0041614   0.4178403  -1.0005951), wk =   0.0333333
        k(   15) = (  -0.0030780   0.4171647  -0.7598280), wk =   0.0333333
        k(   16) = (  -0.0019947   0.4164891  -0.5190609), wk =   0.0333333
        k(   17) = (   0.2512644  -0.0014997   0.1720277), wk =   0.0333333
        k(   18) = (   0.2523477  -0.0021752   0.4127948), wk =   0.0333333
        k(   19) = (   0.2534310  -0.0028508   0.6535620), wk =   0.0333333
        k(   20) = (   0.2480144   0.0005271  -0.5502736), wk =   0.0333333
        k(   21) = (   0.2490977  -0.0001485  -0.3095065), wk =   0.0333333
        k(   22) = (   0.2501811  -0.0008241  -0.0687394), wk =   0.0333333
        k(   23) = (   0.2508087   0.2064071   0.0328808), wk =   0.0333333
        k(   24) = (   0.2518920   0.2057315   0.2736480), wk =   0.0333333
        k(   25) = (   0.2529754   0.2050560   0.5144151), wk =   0.0333333
        k(   26) = (   0.2475587   0.2084338  -0.6894205), wk =   0.0333333
        k(   27) = (   0.2486420   0.2077583  -0.4486534), wk =   0.0333333
        k(   28) = (   0.2497254   0.2070827  -0.2078863), wk =   0.0333333
        k(   29) = (   0.2503530   0.4143139  -0.1062661), wk =   0.0333333
        k(   30) = (   0.2514363   0.4136383   0.1345011), wk =   0.0333333
        k(   31) = (   0.2525197   0.4129627   0.3752682), wk =   0.0333333
        k(   32) = (   0.2471030   0.4163406  -0.8285674), wk =   0.0333333
        k(   33) = (   0.2481863   0.4156650  -0.5878003), wk =   0.0333333
        k(   34) = (   0.2492697   0.4149895  -0.3470332), wk =   0.0333333
        k(   35) = (   0.2521758  -0.4173132   0.4503215), wk =   0.0333333
        k(   36) = (   0.2532591  -0.4179888   0.6910886), wk =   0.0333333
        k(   37) = (   0.2543424  -0.4186644   0.9318557), wk =   0.0333333
        k(   38) = (   0.2489258  -0.4152865  -0.2719798), wk =   0.0333333
        k(   39) = (   0.2500091  -0.4159620  -0.0312127), wk =   0.0333333
        k(   40) = (   0.2510924  -0.4166376   0.2095544), wk =   0.0333333
        k(   41) = (   0.2517201  -0.2094064   0.3111746), wk =   0.0333333
        k(   42) = (   0.2528034  -0.2100820   0.5519417), wk =   0.0333333
        k(   43) = (   0.2538867  -0.2107576   0.7927089), wk =   0.0333333
        k(   44) = (   0.2484701  -0.2073797  -0.4111267), wk =   0.0333333
        k(   45) = (   0.2495534  -0.2080553  -0.1703596), wk =   0.0333333
        k(   46) = (   0.2506368  -0.2087309   0.0704075), wk =   0.0333333
        k(   47) = (  -0.5025288   0.0029993  -0.3440555), wk =   0.0166667
        k(   48) = (  -0.5014454   0.0023237  -0.1032883), wk =   0.0333333
        k(   49) = (  -0.5003621   0.0016482   0.1374788), wk =   0.0333333
        k(   50) = (  -0.5057788   0.0050261  -1.0663568), wk =   0.0166667
        k(   51) = (  -0.5029845   0.2109061  -0.4832024), wk =   0.0333333
        k(   52) = (  -0.5019011   0.2102305  -0.2424352), wk =   0.0333333
        k(   53) = (  -0.5008178   0.2095549  -0.0016681), wk =   0.0333333
        k(   54) = (  -0.5062345   0.2129328  -1.2055037), wk =   0.0333333
        k(   55) = (  -0.5051511   0.2122572  -0.9647366), wk =   0.0333333
        k(   56) = (  -0.5040678   0.2115817  -0.7239695), wk =   0.0333333
        k(   57) = (  -0.5034402   0.4188129  -0.6223493), wk =   0.0333333
        k(   58) = (  -0.5023568   0.4181373  -0.3815821), wk =   0.0333333
        k(   59) = (  -0.5012735   0.4174617  -0.1408150), wk =   0.0333333
        k(   60) = (  -0.5066902   0.4208396  -1.3446506), wk =   0.0333333
        k(   61) = (  -0.5056068   0.4201640  -1.1038835), wk =   0.0333333
        k(   62) = (  -0.5045235   0.4194884  -0.8631164), wk =   0.0333333

     Check: negative/imaginary core charge=   -0.000005    0.000000
     extrapolated charge   16.06146, renormalised to   16.00000

     total cpu time spent up to now is       51.6 secs

     Self-consistent Calculation

     iteration #  1     ecut=    60.00 Ry     beta=0.70
     CG style diagonalization
     ethr =  1.00E-06,  avg # of iterations =  4.5

     total cpu time spent up to now is       52.5 secs

     total energy              =    -188.85071317 Ry
     Harris-Foulkes estimate   =    -188.56410292 Ry
     estimated scf accuracy    <       0.00049956 Ry

     iteration #  2     ecut=    60.00 Ry     beta=0.70
     CG style diagonalization
     ethr =  3.12E-06,  avg # of iterations =  5.0

     total cpu time spent up to now is       53.5 secs

     total energy              =    -188.85095276 Ry
     Harris-Foulkes estimate   =    -188.85112204 Ry
     estimated scf accuracy    <       0.00026311 Ry

     iteration #  3     ecut=    60.00 Ry     beta=0.70
     CG style diagonalization
     ethr =  1.64E-06,  avg # of iterations =  3.9

     total cpu time spent up to now is       54.3 secs

     total energy              =    -188.85100336 Ry
     Harris-Foulkes estimate   =    -188.85102431 Ry
     estimated scf accuracy    <       0.00002614 Ry

     iteration #  4     ecut=    60.00 Ry     beta=0.70
     CG style diagonalization
     ethr =  1.63E-07,  avg # of iterations =  4.5

     total cpu time spent up to now is       55.2 secs

     total energy              =    -188.85101680 Ry
     Harris-Foulkes estimate   =    -188.85101899 Ry
     estimated scf accuracy    <       0.00000484 Ry

     iteration #  5     ecut=    60.00 Ry     beta=0.70
     CG style diagonalization
     ethr =  3.02E-08,  avg # of iterations =  4.5

     total cpu time spent up to now is       56.1 secs

     total energy              =    -188.85101901 Ry
     Harris-Foulkes estimate   =    -188.85102009 Ry
     estimated scf accuracy    <       0.00000171 Ry

     iteration #  6     ecut=    60.00 Ry     beta=0.70
     CG style diagonalization
     ethr =  1.07E-08,  avg # of iterations =  4.7

     total cpu time spent up to now is       57.0 secs

     total energy              =    -188.85102049 Ry
     Harris-Foulkes estimate   =    -188.85102050 Ry
     estimated scf accuracy    <       0.00000008 Ry

     iteration #  7     ecut=    60.00 Ry     beta=0.70
     CG style diagonalization
     c_bands:  1 eigenvalues not converged
     c_bands:  1 eigenvalues not converged
     c_bands:  1 eigenvalues not converged
     c_bands:  1 eigenvalues not converged
     ethr =  4.99E-10,  avg # of iterations =  8.1

     total cpu time spent up to now is       58.5 secs

     total energy              =    -188.85102165 Ry
     Harris-Foulkes estimate   =    -188.85102179 Ry
     estimated scf accuracy    <       0.00000036 Ry

     iteration #  8     ecut=    60.00 Ry     beta=0.70
     CG style diagonalization
     ethr =  4.99E-10,  avg # of iterations =  5.4

     total cpu time spent up to now is       59.6 secs

     total energy              =    -188.85102181 Ry
     Harris-Foulkes estimate   =    -188.85102182 Ry
     estimated scf accuracy    <       0.00000007 Ry

     iteration #  9     ecut=    60.00 Ry     beta=0.70
     CG style diagonalization
     ethr =  4.45E-10,  avg # of iterations =  4.6

     total cpu time spent up to now is       60.9 secs

     total energy              =    -188.85102186 Ry
     Harris-Foulkes estimate   =    -188.85102187 Ry
     estimated scf accuracy    <       0.00000002 Ry

     iteration # 10     ecut=    60.00 Ry     beta=0.70
     CG style diagonalization
     ethr =  1.14E-10,  avg # of iterations =  5.1

     total cpu time spent up to now is       61.9 secs

     total energy              =    -188.85102188 Ry
     Harris-Foulkes estimate   =    -188.85102188 Ry
     estimated scf accuracy    <          4.5E-10 Ry

     iteration # 11     ecut=    60.00 Ry     beta=0.70
     CG style diagonalization
     c_bands:  1 eigenvalues not converged
     c_bands:  1 eigenvalues not converged
     c_bands:  1 eigenvalues not converged
     c_bands:  1 eigenvalues not converged
     c_bands:  1 eigenvalues not converged
     c_bands:  1 eigenvalues not converged
     c_bands:  1 eigenvalues not converged
     ethr =  2.82E-12,  avg # of iterations =  9.6

     total cpu time spent up to now is       63.7 secs

     total energy              =    -188.85102190 Ry
     Harris-Foulkes estimate   =    -188.85102190 Ry
     estimated scf accuracy    <          5.1E-10 Ry

     iteration # 12     ecut=    60.00 Ry     beta=0.70
     CG style diagonalization
     c_bands:  1 eigenvalues not converged
     c_bands:  1 eigenvalues not converged
     ethr =  2.82E-12,  avg # of iterations =  6.2

     total cpu time spent up to now is       64.9 secs

     total energy              =    -188.85102190 Ry
     Harris-Foulkes estimate   =    -188.85102190 Ry
     estimated scf accuracy    <          5.7E-10 Ry

     iteration # 13     ecut=    60.00 Ry     beta=0.70
     CG style diagonalization
     ethr =  2.82E-12,  avg # of iterations =  4.9

     total cpu time spent up to now is       65.8 secs

     total energy              =    -188.85102190 Ry
     Harris-Foulkes estimate   =    -188.85102190 Ry
     estimated scf accuracy    <          7.6E-10 Ry

     iteration # 14     ecut=    60.00 Ry     beta=0.70
     CG style diagonalization
     ethr =  2.82E-12,  avg # of iterations =  4.5

     total cpu time spent up to now is       66.8 secs

     total energy              =    -188.85102190 Ry
     Harris-Foulkes estimate   =    -188.85102190 Ry
     estimated scf accuracy    <          1.2E-10 Ry

     iteration # 15     ecut=    60.00 Ry     beta=0.70
     CG style diagonalization
     ethr =  7.78E-13,  avg # of iterations =  4.9

     total cpu time spent up to now is       67.7 secs

     End of self-consistent calculation

          k = 0.0000 0.0000 0.0000 (  2411 PWs)   bands (ev):

[...]
     estimated scf accuracy    <       0.00194565 Ry

     iteration #  4     ecut=    60.00 Ry     beta=0.70
     CG style diagonalization
     ethr =  1.22E-05,  avg # of iterations =  4.1

     total cpu time spent up to now is      192.4 secs

     total energy              =    -188.84950312 Ry
     Harris-Foulkes estimate   =    -188.84895971 Ry
     estimated scf accuracy    <       0.00004078 Ry

     iteration #  5     ecut=    60.00 Ry     beta=0.70
     CG style diagonalization
     c_bands:  1 eigenvalues not converged
     c_bands:  1 eigenvalues not converged
     c_bands:  1 eigenvalues not converged
     c_bands:  1 eigenvalues not converged
     c_bands:  1 eigenvalues not converged
     c_bands:  1 eigenvalues not converged
     c_bands:  1 eigenvalues not converged
     c_bands:  1 eigenvalues not converged
     c_bands:  1 eigenvalues not converged
     c_bands:  1 eigenvalues not converged
     c_bands:  1 eigenvalues not converged
     c_bands:  1 eigenvalues not converged
     ethr =  2.55E-07,  avg # of iterations =  8.3

     total cpu time spent up to now is      194.0 secs

     total energy              =    -188.85113019 Ry
     Harris-Foulkes estimate   =    -188.85115721 Ry
     estimated scf accuracy    <       0.00017783 Ry

     iteration #  6     ecut=    60.00 Ry     beta=0.70
     CG style diagonalization
     c_bands:  1 eigenvalues not converged
     c_bands:  1 eigenvalues not converged
     c_bands:  1 eigenvalues not converged
     ethr =  2.55E-07,  avg # of iterations =  5.7

     total cpu time spent up to now is      195.1 secs

     total energy              =    -188.85128732 Ry
     Harris-Foulkes estimate   =    -188.85129651 Ry
     estimated scf accuracy    <       0.00014850 Ry

     iteration #  7     ecut=    60.00 Ry     beta=0.70
     CG style diagonalization
     c_bands:  1 eigenvalues not converged
     ethr =  2.55E-07,  avg # of iterations =  4.2

     total cpu time spent up to now is      195.9 secs

     total energy              =    -188.85135699 Ry
     Harris-Foulkes estimate   =    -188.85134703 Ry
     estimated scf accuracy    <       0.00013692 Ry

     iteration #  8     ecut=    60.00 Ry     beta=0.70
     CG style diagonalization
     ethr =  2.55E-07,  avg # of iterations =  3.9

     total cpu time spent up to now is      196.7 secs

     total energy              =    -188.85129709 Ry
     Harris-Foulkes estimate   =    -188.85141121 Ry
     estimated scf accuracy    <       0.00015257 Ry

     iteration #  9     ecut=    60.00 Ry     beta=0.70
     CG style diagonalization
     ethr =  2.55E-07,  avg # of iterations =  4.6

     total cpu time spent up to now is      197.7 secs

     total energy              =    -188.85169576 Ry
     Harris-Foulkes estimate   =    -188.85132934 Ry
     estimated scf accuracy    <       0.00000782 Ry

     iteration # 10     ecut=    60.00 Ry     beta=0.70
     CG style diagonalization
     ethr =  4.89E-08,  avg # of iterations =  6.8

     total cpu time spent up to now is      199.0 secs

     total energy              =    -188.85111960 Ry
     Harris-Foulkes estimate   =    -188.85192821 Ry
     estimated scf accuracy    <       0.00116454 Ry

     iteration # 11     ecut=    60.00 Ry     beta=0.70
     CG style diagonalization
     ethr =  4.89E-08,  avg # of iterations =  5.7

     total cpu time spent up to now is      200.2 secs

     total energy              =    -188.85136743 Ry
     Harris-Foulkes estimate   =    -188.85136761 Ry
     estimated scf accuracy    <       0.00000318 Ry

     iteration # 12     ecut=    60.00 Ry     beta=0.70
     CG style diagonalization
     ethr =  1.99E-08,  avg # of iterations =  5.8

     total cpu time spent up to now is      201.4 secs

     total energy              =    -188.85137407 Ry
     Harris-Foulkes estimate   =    -188.85138246 Ry
     estimated scf accuracy    <       0.00000389 Ry

     iteration # 13     ecut=    60.00 Ry     beta=0.70
     CG style diagonalization
     ethr =  1.99E-08,  avg # of iterations =  4.2

     total cpu time spent up to now is      202.7 secs

     total energy              =    -188.85137763 Ry
     Harris-Foulkes estimate   =    -188.85137571 Ry
     estimated scf accuracy    <       0.00000197 Ry

     iteration # 14     ecut=    60.00 Ry     beta=0.70
     CG style diagonalization
     ethr =  1.23E-08,  avg # of iterations =  4.0

     total cpu time spent up to now is      203.5 secs

     total energy              =    -188.85138181 Ry
     Harris-Foulkes estimate   =    -188.85137844 Ry
     estimated scf accuracy    <       0.00000066 Ry

     iteration # 15     ecut=    60.00 Ry     beta=0.70
     CG style diagonalization
     ethr =  4.12E-09,  avg # of iterations =  5.4

     total cpu time spent up to now is      204.5 secs

     total energy              =    -188.85138199 Ry
     Harris-Foulkes estimate   =    -188.85138277 Ry
     estimated scf accuracy    <       0.00000029 Ry

     iteration # 16     ecut=    60.00 Ry     beta=0.70
     CG style diagonalization
     ethr =  1.82E-09,  avg # of iterations =  5.3

     total cpu time spent up to now is      205.5 secs

     total energy              =    -188.85138229 Ry
     Harris-Foulkes estimate   =    -188.85138237 Ry
     estimated scf accuracy    <       0.00000013 Ry

     iteration # 17     ecut=    60.00 Ry     beta=0.70
     CG style diagonalization
     ethr =  8.18E-10,  avg # of iterations =  5.1

     total cpu time spent up to now is      206.5 secs

     total energy              =    -188.85138243 Ry
     Harris-Foulkes estimate   =    -188.85138244 Ry
     estimated scf accuracy    <       0.00000005 Ry

     iteration # 18     ecut=    60.00 Ry     beta=0.70
     CG style diagonalization
     ethr =  2.89E-10,  avg # of iterations =  5.0

     total cpu time spent up to now is      207.5 secs

     total energy              =    -188.85138250 Ry
     Harris-Foulkes estimate   =    -188.85138250 Ry
     estimated scf accuracy    <       0.00000002 Ry

     iteration # 19     ecut=    60.00 Ry     beta=0.70
     CG style diagonalization
     ethr =  1.53E-10,  avg # of iterations =  4.8

     total cpu time spent up to now is      208.4 secs

     total energy              =    -188.85138241 Ry
     Harris-Foulkes estimate   =    -188.85138253 Ry
     estimated scf accuracy    <       0.00000002 Ry

     iteration # 20     ecut=    60.00 Ry     beta=0.70
     CG style diagonalization
     ethr =  1.45E-10,  avg # of iterations =  4.0

     total cpu time spent up to now is      209.2 secs

     total energy              =    -188.85138240 Ry
     Harris-Foulkes estimate   =    -188.85138242 Ry
     estimated scf accuracy    <          5.0E-09 Ry

     iteration # 21     ecut=    60.00 Ry     beta=0.70
     CG style diagonalization
     c_bands:  1 eigenvalues not converged
     ethr =  3.12E-11,  avg # of iterations =  5.4

     total cpu time spent up to now is      210.5 secs

     total energy              =    -188.85138240 Ry
     Harris-Foulkes estimate   =    -188.85138241 Ry
     estimated scf accuracy    <          6.1E-10 Ry

     iteration # 22     ecut=    60.00 Ry     beta=0.70
     CG style diagonalization
     c_bands:  1 eigenvalues not converged
     c_bands:  1 eigenvalues not converged
     ethr =  3.80E-12,  avg # of iterations =  7.3

     total cpu time spent up to now is      211.8 secs

     total energy              =    -188.85138240 Ry
     Harris-Foulkes estimate   =    -188.85138240 Ry
     estimated scf accuracy    <          2.7E-10 Ry

     iteration # 23     ecut=    60.00 Ry     beta=0.70
     CG style diagonalization
     ethr =  1.70E-12,  avg # of iterations =  6.2

     total cpu time spent up to now is      213.0 secs

     End of self-consistent calculation

          k = 0.0000 0.0000 0.0000 (  2435 PWs)   bands (ev):

   -48.1386 -20.0494 -20.0494 -20.0491 -11.7672   0.8234   0.8281   0.8317

          k = 0.0048-0.0033 0.2400 (  2460 PWs)   bands (ev):

   -48.1384 -20.0551 -20.0512 -20.0510 -11.6725   0.2375   0.6717   0.6731

          k = 0.0097-0.0066 0.4800 (  2453 PWs)   bands (ev):

   -48.1380 -20.0639 -20.0547 -20.0546 -11.4960  -0.5093   0.3881   0.3906

          k =-0.0145 0.0099-0.7199 (  2450 PWs)   bands (ev):

   -48.1378 -20.0670 -20.0565 -20.0564 -11.4152  -0.7564   0.2579   0.2609

          k =-0.0023 0.2056-0.1410 (  2458 PWs)   bands (ev):

   -48.1384 -20.0580 -20.0501 -20.0499 -11.6655   0.0636   0.7375   0.7430

          k = 0.0025 0.2023 0.0990 (  2458 PWs)   bands (ev):

   -48.1385 -20.0567 -20.0501 -20.0496 -11.6822   0.1865   0.7292   0.7651

          k = 0.0074 0.1990 0.3390 (  2452 PWs)   bands (ev):

   -48.1382 -20.0648 -20.0520 -20.0515 -11.5559  -0.4216   0.5489   0.5688

          k =-0.0168 0.2155-0.8609 (  2438 PWs)   bands (ev):

   -48.1379 -20.0666 -20.0577 -20.0546 -11.4316  -0.6311   0.0639   0.3646

          k =-0.0119 0.2122-0.6209 (  2440 PWs)   bands (ev):

   -48.1378 -20.0658 -20.0592 -20.0549 -11.4190  -0.6181  -0.0168   0.3428

          k =-0.0071 0.2089-0.3809 (  2448 PWs)   bands (ev):

   -48.1381 -20.0656 -20.0527 -20.0525 -11.5264  -0.5078   0.4612   0.5217

          k =-0.0046 0.4112-0.2819 (  2451 PWs)   bands (ev):

   -48.1381 -20.0721 -20.0511 -20.0509 -11.4929  -0.8697   0.6019   0.6071

          k = 0.0003 0.4079-0.0419 (  2449 PWs)   bands (ev):

   -48.1381 -20.0649 -20.0543 -20.0503 -11.5430  -0.4312   0.3534   0.6627

          k = 0.0051 0.4047 0.1980 (  2445 PWs)   bands (ev):

   -48.1381 -20.0696 -20.0517 -20.0506 -11.5175  -0.7059   0.5455   0.6341

          k =-0.0190 0.4211-1.0018 (  2446 PWs)   bands (ev):

   -48.1380 -20.0734 -20.0523 -20.0516 -11.4568  -0.9345   0.4610   0.5465

          k =-0.0142 0.4178-0.7619 (  2443 PWs)   bands (ev):

   -48.1379 -20.0673 -20.0594 -20.0524 -11.4329  -0.5824  -0.1254   0.4874

          k =-0.0094 0.4145-0.5219 (  2440 PWs)   bands (ev):

   -48.1379 -20.0714 -20.0549 -20.0521 -11.4430  -0.8463   0.2488   0.5160

          k = 0.2582-0.0029 0.1754 (  2450 PWs)   bands (ev):

   -48.1383 -20.0622 -20.0504 -20.0500 -11.6180  -0.2165   0.6961   0.7000

          k = 0.2630-0.0062 0.4153 (  2451 PWs)   bands (ev):

   -48.1380 -20.0685 -20.0530 -20.0527 -11.4898  -0.6609   0.3912   0.5001

          k = 0.2678-0.0095 0.6553 (  2435 PWs)   bands (ev):

   -48.1378 -20.0654 -20.0607 -20.0545 -11.4117  -0.5528  -0.1714   0.3641

          k = 0.2437 0.0069-0.5446 (  2437 PWs)   bands (ev):

   -48.1379 -20.0677 -20.0569 -20.0538 -11.4396  -0.6684   0.1028   0.4145

          k = 0.2485 0.0037-0.3046 (  2454 PWs)   bands (ev):

   -48.1382 -20.0659 -20.0514 -20.0510 -11.5570  -0.4991   0.6071   0.6170

          k = 0.2533 0.0004-0.0646 (  2459 PWs)   bands (ev):

   -48.1384 -20.0580 -20.0512 -20.0496 -11.6567   0.0542   0.6520   0.7566

          k = 0.2559 0.2027 0.0344 (  2455 PWs)   bands (ev):

   -48.1383 -20.0591 -20.0523 -20.0521 -11.6063  -0.0903   0.5692   0.5713

          k = 0.2607 0.1994 0.2744 (  2446 PWs)   bands (ev):

   -48.1381 -20.0656 -20.0549 -20.0503 -11.5295  -0.4576   0.3046   0.6388

          k = 0.2655 0.1961 0.5144 (  2444 PWs)   bands (ev):

   -48.1379 -20.0667 -20.0591 -20.0534 -11.4310  -0.5603  -0.0736   0.3895

          k = 0.2414 0.2125-0.6855 (  2447 PWs)   bands (ev):

   -48.1378 -20.0627 -20.0612 -20.0575 -11.4028  -0.3888  -0.2307   0.1489

          k = 0.2462 0.2093-0.4455 (  2443 PWs)   bands (ev):

   -48.1379 -20.0669 -20.0579 -20.0523 -11.4568  -0.5858   0.0252   0.5069

          k = 0.2511 0.2060-0.2056 (  2450 PWs)   bands (ev):

   -48.1382 -20.0631 -20.0538 -20.0508 -11.5625  -0.3391   0.4148   0.6470

          k = 0.2536 0.4083-0.1066 (  2440 PWs)   bands (ev):

   -48.1380 -20.0653 -20.0549 -20.0540 -11.4879  -0.5435   0.3136   0.4240

          k = 0.2584 0.4050 0.1334 (  2442 PWs)   bands (ev):

   -48.1380 -20.0660 -20.0547 -20.0538 -11.4839  -0.5622   0.2989   0.4304

          k = 0.2633 0.4017 0.3734 (  2440 PWs)   bands (ev):

   -48.1379 -20.0691 -20.0574 -20.0523 -11.4376  -0.6935   0.0484   0.4783

          k = 0.2391 0.4182-0.8265 (  2440 PWs)   bands (ev):

   -48.1378 -20.0660 -20.0595 -20.0548 -11.4164  -0.5688  -0.0830   0.3115

          k = 0.2440 0.4149-0.5865 (  2440 PWs)   bands (ev):

   -48.1378 -20.0663 -20.0592 -20.0547 -11.4178  -0.5836  -0.0946   0.3493

          k = 0.2488 0.4116-0.3465 (  2439 PWs)   bands (ev):

   -48.1379 -20.0687 -20.0570 -20.0526 -11.4431  -0.6931   0.0767   0.4854

          k = 0.2627-0.4141 0.4573 (  2439 PWs)   bands (ev):

   -48.1379 -20.0682 -20.0586 -20.0530 -11.4253  -0.6610  -0.0534   0.4529

          k = 0.2676-0.4174 0.6972 (  2442 PWs)   bands (ev):

   -48.1378 -20.0651 -20.0589 -20.0563 -11.4151  -0.5480  -0.0314   0.2244

          k = 0.2724-0.4207 0.9372 (  2433 PWs)   bands (ev):

   -48.1379 -20.0681 -20.0585 -20.0533 -11.4226  -0.6460  -0.0736   0.4388

          k = 0.2482-0.4043-0.2627 (  2443 PWs)   bands (ev):

   -48.1379 -20.0680 -20.0558 -20.0528 -11.4617  -0.6510   0.1928   0.4616

          k = 0.2531-0.4076-0.0227 (  2438 PWs)   bands (ev):

   -48.1380 -20.0644 -20.0550 -20.0539 -11.4955  -0.5046   0.3426   0.4118

          k = 0.2579-0.4109 0.2173 (  2444 PWs)   bands (ev):

   -48.1380 -20.0676 -20.0555 -20.0530 -11.4670  -0.6374   0.2196   0.4596

          k = 0.2604-0.2085 0.3163 (  2444 PWs)   bands (ev):

   -48.1381 -20.0664 -20.0556 -20.0507 -11.5079  -0.5168   0.2216   0.6208

          k = 0.2653-0.2118 0.5563 (  2441 PWs)   bands (ev):

   -48.1378 -20.0658 -20.0595 -20.0549 -11.4189  -0.5192  -0.1311   0.3114

          k = 0.2701-0.2151 0.7963 (  2446 PWs)   bands (ev):

   -48.1378 -20.0638 -20.0607 -20.0566 -11.4067  -0.4378  -0.1996   0.2006

          k = 0.2460-0.1987-0.4036 (  2437 PWs)   bands (ev):

   -48.1380 -20.0670 -20.0570 -20.0515 -11.4760  -0.5743   0.1017   0.5626

          k = 0.2508-0.2020-0.1636 (  2455 PWs)   bands (ev):

   -48.1382 -20.0619 -20.0531 -20.0510 -11.5805  -0.2520   0.4787   0.6290

          k = 0.2556-0.2052 0.0763 (  2463 PWs)   bands (ev):

   -48.1383 -20.0600 -20.0524 -20.0517 -11.5998  -0.1364   0.5463   0.5906

          k =-0.5163 0.0058-0.3507 (  2452 PWs)   bands (ev):

   -48.1380 -20.0748 -20.0513 -20.0510 -11.4606  -1.0070   0.5761   0.5788

          k =-0.5115 0.0026-0.1107 (  2439 PWs)   bands (ev):

   -48.1380 -20.0696 -20.0550 -20.0512 -11.4731  -0.7134   0.2455   0.5779

          k =-0.5067-0.0007 0.1292 (  2440 PWs)   bands (ev):

   -48.1380 -20.0693 -20.0552 -20.0512 -11.4741  -0.7161   0.2509   0.5796

          k =-0.5308 0.0157-1.0706 (  2452 PWs)   bands (ev):

   -48.1380 -20.0744 -20.0513 -20.0512 -11.4626  -1.0094   0.5810   0.5853

          k =-0.5186 0.2115-0.4917 (  2444 PWs)   bands (ev):

   -48.1379 -20.0700 -20.0551 -20.0530 -11.4454  -0.7544   0.2071   0.4613

          k =-0.5138 0.2082-0.2517 (  2444 PWs)   bands (ev):

   -48.1379 -20.0708 -20.0551 -20.0525 -11.4427  -0.7960   0.2251   0.4752

          k =-0.5090 0.2049-0.0117 (  2438 PWs)   bands (ev):

   -48.1379 -20.0661 -20.0569 -20.0539 -11.4563  -0.5739   0.1410   0.3831

          k =-0.5331 0.2213-1.2116 (  2443 PWs)   bands (ev):

   -48.1379 -20.0696 -20.0552 -20.0531 -11.4470  -0.7560   0.2072   0.4696

          k =-0.5283 0.2180-0.9716 (  2444 PWs)   bands (ev):

   -48.1379 -20.0704 -20.0551 -20.0528 -11.4441  -0.7988   0.2277   0.4813

          k =-0.5234 0.2147-0.7317 (  2439 PWs)   bands (ev):

   -48.1379 -20.0660 -20.0570 -20.0540 -11.4560  -0.5747   0.1390   0.3852

          k =-0.5209 0.4171-0.6326 (  2443 PWs)   bands (ev):

   -48.1378 -20.0664 -20.0573 -20.0560 -11.4194  -0.7007   0.1750   0.2859

          k =-0.5161 0.4138-0.3927 (  2439 PWs)   bands (ev):

   -48.1378 -20.0645 -20.0605 -20.0561 -11.4069  -0.4565  -0.1956   0.2213

          k =-0.5112 0.4105-0.1527 (  2439 PWs)   bands (ev):

   -48.1378 -20.0657 -20.0589 -20.0556 -11.4148  -0.6283   0.0357   0.2754

          k =-0.5354 0.4269-1.3526 (  2442 PWs)   bands (ev):

   -48.1378 -20.0664 -20.0571 -20.0560 -11.4204  -0.7007   0.1696   0.2950

          k =-0.5305 0.4236-1.1126 (  2444 PWs)   bands (ev):

   -48.1378 -20.0642 -20.0605 -20.0564 -11.4076  -0.4580  -0.1959   0.2263

          k =-0.5257 0.4204-0.8726 (  2438 PWs)   bands (ev):

   -48.1378 -20.0655 -20.0588 -20.0559 -11.4147  -0.6280   0.0305   0.2799

!    total energy              =    -188.85138240 Ry
     Harris-Foulkes estimate   =    -188.85138240 Ry
     estimated scf accuracy    <          8.6E-11 Ry

     total all-electron energy =     -1248.138375 Ry

     The total energy is the sum of the following terms:

     one-electron contribution =     -82.06228281 Ry
     hartree contribution      =      42.65007340 Ry
     xc contribution           =     -24.66998088 Ry
     ewald contribution        =     -68.14999230 Ry
     one-center paw contrib.   =     -56.61919981 Ry

     convergence has been achieved in  23 iterations

     Forces acting on atoms (Ry/au):

     atom    1 type  1   force =     0.00002782    0.00001789    0.00000622
     atom    2 type  2   force =    -0.00002782   -0.00001789   -0.00000622

     Total force =     0.000048     Total SCF correction =     0.000001


     entering subroutine stress ...

          total   stress  (Ry/bohr**3)                   (kbar)     P=    0.03
   0.00000081   0.00000115   0.00000170          0.12      0.17      0.25
   0.00000115  -0.00000016   0.00000102          0.17     -0.02      0.15
   0.00000170   0.00000102  -0.00000008          0.25      0.15     -0.01


     Writing output data file NaCl_pegs+pwscf.save
 
     init_run     :      1.03s CPU      1.12s WALL (       2 calls)
     electrons    :    188.62s CPU    201.40s WALL (      12 calls)
     update_pot   :      2.43s CPU      2.55s WALL (      10 calls)
     forces       :      1.68s CPU      1.71s WALL (      12 calls)
     stress       :      2.98s CPU      3.02s WALL (      12 calls)

     Called by init_run:
     wfcinit      :      0.51s CPU      0.55s WALL (       2 calls)
     potinit      :      0.20s CPU      0.22s WALL (       2 calls)

     Called by electrons:
     c_bands      :    164.76s CPU    173.05s WALL (     199 calls)
     sum_band     :     14.24s CPU     14.92s WALL (     199 calls)
     v_of_rho     :      0.94s CPU      1.02s WALL (     211 calls)
     newd         :      0.73s CPU      0.78s WALL (     211 calls)
     mix_rho      :      4.31s CPU      4.44s WALL (     199 calls)

     Called by c_bands:
     init_us_2    :      2.18s CPU      2.15s WALL (   26908 calls)
     ccgdiagg     :    128.10s CPU    133.72s WALL (   12338 calls)
     wfcrot       :     34.87s CPU     36.57s WALL (   12400 calls)

     Called by *cgdiagg:
     h_psi        :    116.18s CPU    124.17s WALL (  410257 calls)
     s_psi        :      3.11s CPU      4.73s WALL (  808114 calls)
     cdiaghg      :      7.42s CPU      7.72s WALL (   12400 calls)

     Called by h_psi:
     add_vuspsi   :      1.87s CPU      2.73s WALL (  410257 calls)

     General routines
     calbec       :     11.31s CPU     14.41s WALL (  822560 calls)
     fft          :      0.70s CPU      0.76s WALL (    3041 calls)
     fftw         :    112.24s CPU    113.08s WALL ( 1093810 calls)
     davcio       :      1.44s CPU      2.34s WALL (   39246 calls)
 
     Parallel routines
     fft_scatter  :     46.33s CPU     47.14s WALL ( 1096851 calls)
 
     PAW routines
     PAW_pot      :      3.17s CPU      3.85s WALL (     221 calls)
     PAW_ddot     :      4.10s CPU      4.18s WALL (    5547 calls)
 
     PWSCF        :  3m18.80s CPU     3m33.58s WALL

 
   This run was terminated on:   0: 8:18  23Mar2018            

=------------------------------------------------------------------------------=
   JOB DONE.
=------------------------------------------------------------------------------=
