
     Program PWSCF v.5.0.2 starts on 23Mar2018 at  0: 4:45 

     This program is part of the open-source Quantum ESPRESSO suite
     for quantum simulation of materials; please cite
         "P. Giannozzi et al., J. Phys.:Condens. Matter 21 395502 (2009);
          URL http://www.quantum-espresso.org", 
     in publications or presentations arising from this work. More details at
     http://www.quantum-espresso.org/quote.php

     Parallel version (MPI), running on     8 processors
     R & G space division:  proc/nbgrp/npool/nimage =       8

     Current dimensions of program PWSCF are:
     Max number of different atomic species (ntypx) = 10
     Max number of k-points (npk) =  40000
     Max angular momentum in pseudopotentials (lmaxx) =  3
     Waiting for input...
     Reading input from standard input
               file Na.pbe-spn-kjpaw_psl.0.2.UPF: wavefunction(s)  2P 3P renormalized
               file Cl.pbe-n-kjpaw_psl.0.1.UPF: wavefunction(s)  3S 3P renormalized

     Subspace diagonalization in iterative solution of the eigenvalue problem:
     scalapack distributed-memory algorithm (size of sub-group:  2*  2 procs)

 
     Parallelization info
     --------------------
     sticks:   dense  smooth     PW     G-vecs:    dense   smooth      PW
     Min          95      95     30                 1973     1973     369
     Max          96      96     31                 1975     1975     372
     Sum         763     763    245                15791    15791    2963
 


     bravais-lattice index     =            0
     lattice parameter (alat)  =       6.3117  a.u.
     unit-cell volume          =     251.0483 (a.u.)^3
     number of atoms/cell      =            2
     number of atomic types    =            2
     number of electrons       =        16.00
     number of Kohn-Sham states=            8
     kinetic-energy cutoff     =      60.0000  Ry
     charge density cutoff     =     240.0000  Ry
     convergence threshold     =      1.0E-08
     mixing beta               =       0.7000
     number of iterations used =            8  plain     mixing
     Exchange-correlation      =  SLA  PW   PBX  PBC ( 1 4 3 4 0)
     EXX-fraction              =        0.00
     nstep                     =           50


     celldm(1)=   6.311685  celldm(2)=   0.000000  celldm(3)=   0.000000
     celldm(4)=   0.000000  celldm(5)=   0.000000  celldm(6)=   0.000000

     crystal axes: (cart. coord. in units of alat)
               a(1) = (   1.000000   0.000000   0.000000 )  
               a(2) = (   0.981264   0.999824   0.000000 )  
               a(3) = (  -0.052810   0.003305   0.998614 )  

     reciprocal axes: (cart. coord. in units 2 pi/alat)
               b(1) = (  1.000000 -0.981436  0.056132 )  
               b(2) = (  0.000000  1.000176 -0.003311 )  
               b(3) = (  0.000000  0.000000  1.001388 )  


     PseudoPot. # 1 for Na read from file:
     /projects/e20438/bin/espresso/pseudo/Na.pbe-spn-kjpaw_psl.0.2.UPF
     MD5 check sum: af6cebf537ceac8ff9d4cdfd6fc7ff14
     Pseudo is Projector augmented-wave, Zval =  9.0
     Generated using "atomic" code by A. Dal Corso  v.5.0.2 svn rev. 9415
     Shape of augmentation charge: PSQ
     Using radial grid of 1121 points,  4 beta functions with: 
                l(1) =   0
                l(2) =   0
                l(3) =   1
                l(4) =   1
     Q(r) pseudized with 0 coefficients 


     PseudoPot. # 2 for Cl read from file:
     /projects/e20438/bin/espresso/pseudo/Cl.pbe-n-kjpaw_psl.0.1.UPF
     MD5 check sum: 39501d8aaca1fada178cfed307344fc1
     Pseudo is Projector augmented-wave + core cor, Zval =  7.0
     Generated using "atomic" code by A. Dal Corso  v.5.0.2 svn rev. 9415
     Shape of augmentation charge: PSQ
     Using radial grid of 1157 points,  4 beta functions with: 
                l(1) =   0
                l(2) =   0
                l(3) =   1
                l(4) =   1
     Q(r) pseudized with 0 coefficients 


     atomic species   valence    mass     pseudopotential
        Na             9.00    22.98977     Na( 1.00)
        Cl             7.00    35.45270     Cl( 1.00)

     No symmetry found



   Cartesian axes

     site n.     atom                  positions (alat units)
         1           Na  tau(   1) = (   0.7615148   0.3240427   0.2262313  )
         2           Cl  tau(   2) = (   1.2572100   0.8189813   0.7029372  )

     number of k points=    62
                       cart. coord. in units 2pi/alat
        k(    1) = (   0.0000000   0.0000000   0.0000000), wk =   0.0166667
        k(    2) = (   0.0000000   0.0000000   0.1668980), wk =   0.0333333
        k(    3) = (   0.0000000   0.0000000   0.3337961), wk =   0.0333333
        k(    4) = (   0.0000000   0.0000000  -0.5006941), wk =   0.0166667
        k(    5) = (   0.0000000   0.2000351  -0.0006621), wk =   0.0333333
        k(    6) = (   0.0000000   0.2000351   0.1662359), wk =   0.0333333
        k(    7) = (   0.0000000   0.2000351   0.3331339), wk =   0.0333333
        k(    8) = (   0.0000000   0.2000351  -0.5013562), wk =   0.0333333
        k(    9) = (   0.0000000   0.2000351  -0.3344582), wk =   0.0333333
        k(   10) = (   0.0000000   0.2000351  -0.1675601), wk =   0.0333333
        k(   11) = (   0.0000000   0.4000702  -0.0013242), wk =   0.0333333
        k(   12) = (   0.0000000   0.4000702   0.1655738), wk =   0.0333333
        k(   13) = (   0.0000000   0.4000702   0.3324718), wk =   0.0333333
        k(   14) = (   0.0000000   0.4000702  -0.5020183), wk =   0.0333333
        k(   15) = (   0.0000000   0.4000702  -0.3351203), wk =   0.0333333
        k(   16) = (   0.0000000   0.4000702  -0.1682223), wk =   0.0333333
        k(   17) = (   0.2500000  -0.2453591   0.0140329), wk =   0.0333333
        k(   18) = (   0.2500000  -0.2453591   0.1809310), wk =   0.0333333
        k(   19) = (   0.2500000  -0.2453591   0.3478290), wk =   0.0333333
        k(   20) = (   0.2500000  -0.2453591  -0.4866611), wk =   0.0333333
        k(   21) = (   0.2500000  -0.2453591  -0.3197631), wk =   0.0333333
        k(   22) = (   0.2500000  -0.2453591  -0.1528651), wk =   0.0333333
        k(   23) = (   0.2500000  -0.0453240   0.0133708), wk =   0.0333333
        k(   24) = (   0.2500000  -0.0453240   0.1802689), wk =   0.0333333
        k(   25) = (   0.2500000  -0.0453240   0.3471669), wk =   0.0333333
        k(   26) = (   0.2500000  -0.0453240  -0.4873233), wk =   0.0333333
        k(   27) = (   0.2500000  -0.0453240  -0.3204252), wk =   0.0333333
        k(   28) = (   0.2500000  -0.0453240  -0.1535272), wk =   0.0333333
        k(   29) = (   0.2500000   0.1547111   0.0127087), wk =   0.0333333
        k(   30) = (   0.2500000   0.1547111   0.1796067), wk =   0.0333333
        k(   31) = (   0.2500000   0.1547111   0.3465048), wk =   0.0333333
        k(   32) = (   0.2500000   0.1547111  -0.4879854), wk =   0.0333333
        k(   33) = (   0.2500000   0.1547111  -0.3210873), wk =   0.0333333
        k(   34) = (   0.2500000   0.1547111  -0.1541893), wk =   0.0333333
        k(   35) = (   0.2500000  -0.6454293   0.0153572), wk =   0.0333333
        k(   36) = (   0.2500000  -0.6454293   0.1822552), wk =   0.0333333
        k(   37) = (   0.2500000  -0.6454293   0.3491532), wk =   0.0333333
        k(   38) = (   0.2500000  -0.6454293  -0.4853369), wk =   0.0333333
        k(   39) = (   0.2500000  -0.6454293  -0.3184389), wk =   0.0333333
        k(   40) = (   0.2500000  -0.6454293  -0.1515409), wk =   0.0333333
        k(   41) = (   0.2500000  -0.4453942   0.0146951), wk =   0.0333333
        k(   42) = (   0.2500000  -0.4453942   0.1815931), wk =   0.0333333
        k(   43) = (   0.2500000  -0.4453942   0.3484911), wk =   0.0333333
        k(   44) = (   0.2500000  -0.4453942  -0.4859990), wk =   0.0333333
        k(   45) = (   0.2500000  -0.4453942  -0.3191010), wk =   0.0333333
        k(   46) = (   0.2500000  -0.4453942  -0.1522030), wk =   0.0333333
        k(   47) = (  -0.5000000   0.4907182  -0.0280659), wk =   0.0166667
        k(   48) = (  -0.5000000   0.4907182   0.1388321), wk =   0.0333333
        k(   49) = (  -0.5000000   0.4907182   0.3057302), wk =   0.0333333
        k(   50) = (  -0.5000000   0.4907182  -0.5287600), wk =   0.0166667
        k(   51) = (  -0.5000000   0.6907533  -0.0287280), wk =   0.0333333
        k(   52) = (  -0.5000000   0.6907533   0.1381700), wk =   0.0333333
        k(   53) = (  -0.5000000   0.6907533   0.3050681), wk =   0.0333333
        k(   54) = (  -0.5000000   0.6907533  -0.5294221), wk =   0.0333333
        k(   55) = (  -0.5000000   0.6907533  -0.3625241), wk =   0.0333333
        k(   56) = (  -0.5000000   0.6907533  -0.1956260), wk =   0.0333333
        k(   57) = (  -0.5000000   0.8907884  -0.0293901), wk =   0.0333333
        k(   58) = (  -0.5000000   0.8907884   0.1375079), wk =   0.0333333
        k(   59) = (  -0.5000000   0.8907884   0.3044059), wk =   0.0333333
        k(   60) = (  -0.5000000   0.8907884  -0.5300842), wk =   0.0333333
        k(   61) = (  -0.5000000   0.8907884  -0.3631862), wk =   0.0333333
        k(   62) = (  -0.5000000   0.8907884  -0.1962881), wk =   0.0333333

     Dense  grid:    15791 G-vectors     FFT dimensions: (  32,  45,  32)

     Largest allocated arrays     est. size (Mb)     dimensions
        Kohn-Sham Wavefunctions         0.03 Mb     (    255,    8)
        NL pseudopotentials             0.06 Mb     (    255,   16)
        Each V/rho on FFT grid          0.09 Mb     (   5760)
        Each G-vector array             0.02 Mb     (   1974)
        G-vector shells                 0.02 Mb     (   1974)
     Largest temporary arrays     est. size (Mb)     dimensions
        Each subspace H/S matrix        0.00 Mb     (   4,   4)
        Each <psi_i|beta_j> matrix      0.00 Mb     (     16,    8)
        Arrays for rho mixing           0.70 Mb     (   5760,   8)

     Check: negative/imaginary core charge=   -0.000006    0.000000

     Initial potential from superposition of free atoms

     starting charge   15.49915, renormalised to   16.00000
     Starting wfc are   12 randomized atomic wfcs
     Checking if some PAW data can be deallocated... 

     total cpu time spent up to now is        1.1 secs

     Self-consistent Calculation

     iteration #  1     ecut=    60.00 Ry     beta=0.70
     CG style diagonalization
     ethr =  1.00E-02,  avg # of iterations =  2.0

     total cpu time spent up to now is        2.0 secs

     total energy              =    -188.73130364 Ry
     Harris-Foulkes estimate   =    -188.89616673 Ry
     estimated scf accuracy    <       0.19715537 Ry

     iteration #  2     ecut=    60.00 Ry     beta=0.70
     CG style diagonalization
     ethr =  1.23E-03,  avg # of iterations =  4.2

     total cpu time spent up to now is        2.8 secs

     total energy              =    -188.80064824 Ry
     Harris-Foulkes estimate   =    -188.81341165 Ry
     estimated scf accuracy    <       0.02173571 Ry

     iteration #  3     ecut=    60.00 Ry     beta=0.70
     CG style diagonalization
     ethr =  1.36E-04,  avg # of iterations =  4.6

     total cpu time spent up to now is        3.5 secs

     total energy              =    -188.81650629 Ry
     Harris-Foulkes estimate   =    -188.81899814 Ry
     estimated scf accuracy    <       0.00427843 Ry

     iteration #  4     ecut=    60.00 Ry     beta=0.70
     CG style diagonalization
     ethr =  2.67E-05,  avg # of iterations =  4.8

     total cpu time spent up to now is        4.4 secs

     total energy              =    -188.81963874 Ry
     Harris-Foulkes estimate   =    -188.81983873 Ry
     estimated scf accuracy    <       0.00046199 Ry

     iteration #  5     ecut=    60.00 Ry     beta=0.70
     CG style diagonalization
     ethr =  2.89E-06,  avg # of iterations =  5.8

     total cpu time spent up to now is        5.3 secs

     total energy              =    -188.82062030 Ry
     Harris-Foulkes estimate   =    -188.82084255 Ry
     estimated scf accuracy    <       0.00034011 Ry

     iteration #  6     ecut=    60.00 Ry     beta=0.70
     CG style diagonalization
     ethr =  2.13E-06,  avg # of iterations =  5.4

     total cpu time spent up to now is        6.2 secs

     total energy              =    -188.82115113 Ry
     Harris-Foulkes estimate   =    -188.82117785 Ry
     estimated scf accuracy    <       0.00005183 Ry

     iteration #  7     ecut=    60.00 Ry     beta=0.70
     CG style diagonalization
     ethr =  3.24E-07,  avg # of iterations =  6.7

     total cpu time spent up to now is        7.2 secs

     total energy              =    -188.82141883 Ry
     Harris-Foulkes estimate   =    -188.82138835 Ry
     estimated scf accuracy    <       0.00003989 Ry

     iteration #  8     ecut=    60.00 Ry     beta=0.70
     CG style diagonalization
     c_bands:  1 eigenvalues not converged
     ethr =  2.49E-07,  avg # of iterations =  5.1

     total cpu time spent up to now is        8.2 secs

     total energy              =    -188.82138102 Ry
     Harris-Foulkes estimate   =    -188.82147450 Ry
     estimated scf accuracy    <       0.00012863 Ry

     iteration #  9     ecut=    60.00 Ry     beta=0.70
     CG style diagonalization
     ethr =  2.49E-07,  avg # of iterations =  5.1

     total cpu time spent up to now is        9.0 secs

     total energy              =    -188.82143590 Ry
     Harris-Foulkes estimate   =    -188.82143880 Ry
     estimated scf accuracy    <       0.00000801 Ry

     iteration # 10     ecut=    60.00 Ry     beta=0.70
     CG style diagonalization
     ethr =  5.00E-08,  avg # of iterations =  5.9

     total cpu time spent up to now is       10.0 secs

     total energy              =    -188.82145590 Ry
     Harris-Foulkes estimate   =    -188.82145536 Ry
     estimated scf accuracy    <       0.00000901 Ry

     iteration # 11     ecut=    60.00 Ry     beta=0.70
     CG style diagonalization
     ethr =  5.00E-08,  avg # of iterations =  4.1

     total cpu time spent up to now is       10.7 secs

     total energy              =    -188.82145515 Ry
     Harris-Foulkes estimate   =    -188.82145935 Ry
     estimated scf accuracy    <       0.00000933 Ry

     iteration # 12     ecut=    60.00 Ry     beta=0.70
     CG style diagonalization
     ethr =  5.00E-08,  avg # of iterations =  3.8

     total cpu time spent up to now is       11.5 secs

     total energy              =    -188.82145664 Ry
     Harris-Foulkes estimate   =    -188.82145711 Ry
     estimated scf accuracy    <       0.00000111 Ry

     iteration # 13     ecut=    60.00 Ry     beta=0.70
     CG style diagonalization
     ethr =  6.97E-09,  avg # of iterations =  6.4

     total cpu time spent up to now is       12.6 secs

     total energy              =    -188.82145971 Ry
     Harris-Foulkes estimate   =    -188.82145965 Ry
     estimated scf accuracy    <       0.00000114 Ry

     iteration # 14     ecut=    60.00 Ry     beta=0.70
     CG style diagonalization
     ethr =  6.97E-09,  avg # of iterations =  4.4

     total cpu time spent up to now is       13.9 secs

     total energy              =    -188.82146100 Ry
     Harris-Foulkes estimate   =    -188.82146054 Ry
     estimated scf accuracy    <       0.00000167 Ry

     iteration # 15     ecut=    60.00 Ry     beta=0.70
     CG style diagonalization
     ethr =  6.97E-09,  avg # of iterations =  4.0

     total cpu time spent up to now is       14.6 secs

     total energy              =    -188.82145988 Ry
     Harris-Foulkes estimate   =    -188.82146143 Ry
     estimated scf accuracy    <       0.00000304 Ry

     iteration # 16     ecut=    60.00 Ry     beta=0.70
     CG style diagonalization
     ethr =  6.97E-09,  avg # of iterations =  4.2

     total cpu time spent up to now is       15.4 secs

     total energy              =    -188.82146025 Ry
     Harris-Foulkes estimate   =    -188.82146025 Ry
     estimated scf accuracy    <       0.00000029 Ry

     iteration # 17     ecut=    60.00 Ry     beta=0.70
     CG style diagonalization
     ethr =  1.82E-09,  avg # of iterations =  4.9

     total cpu time spent up to now is       16.3 secs

     total energy              =    -188.82146053 Ry
     Harris-Foulkes estimate   =    -188.82146050 Ry
     estimated scf accuracy    <       0.00000016 Ry

     iteration # 18     ecut=    60.00 Ry     beta=0.70
     CG style diagonalization
     ethr =  9.75E-10,  avg # of iterations =  4.3

     total cpu time spent up to now is       17.1 secs

     total energy              =    -188.82146060 Ry
     Harris-Foulkes estimate   =    -188.82146062 Ry
     estimated scf accuracy    <       0.00000025 Ry

     iteration # 19     ecut=    60.00 Ry     beta=0.70
     CG style diagonalization
     ethr =  9.75E-10,  avg # of iterations =  3.7

     total cpu time spent up to now is       17.7 secs

     total energy              =    -188.82146065 Ry
     Harris-Foulkes estimate   =    -188.82146064 Ry
     estimated scf accuracy    <       0.00000023 Ry

     iteration # 20     ecut=    60.00 Ry     beta=0.70
     CG style diagonalization
     ethr =  9.75E-10,  avg # of iterations =  3.2

     total cpu time spent up to now is       18.4 secs

     total energy              =    -188.82146050 Ry
     Harris-Foulkes estimate   =    -188.82146067 Ry
     estimated scf accuracy    <       0.00000025 Ry

     iteration # 21     ecut=    60.00 Ry     beta=0.70
     CG style diagonalization
     ethr =  9.75E-10,  avg # of iterations =  3.6

     total cpu time spent up to now is       19.1 secs

     total energy              =    -188.82146056 Ry
     Harris-Foulkes estimate   =    -188.82146056 Ry
     estimated scf accuracy    <       0.00000001 Ry

     iteration # 22     ecut=    60.00 Ry     beta=0.70
     CG style diagonalization
     ethr =  8.26E-11,  avg # of iterations =  5.9

     total cpu time spent up to now is       20.0 secs

     End of self-consistent calculation

          k = 0.0000 0.0000 0.0000 (  1969 PWs)   bands (ev):

   -46.4174 -18.3159 -18.3116 -18.3101 -10.2787   2.9534   3.0271   3.1272

          k = 0.0000 0.0000 0.1669 (  1965 PWs)   bands (ev):

   -46.4166 -18.3315 -18.3116 -18.3095 -10.1579   2.0580   3.0734   3.1356

          k = 0.0000 0.0000 0.3338 (  1975 PWs)   bands (ev):

   -46.4151 -18.3674 -18.3087 -18.3062  -9.8979   0.6277   3.2099   3.2743

          k = 0.0000 0.0000-0.5007 (  1980 PWs)   bands (ev):

   -46.4144 -18.3853 -18.3072 -18.3045  -9.7569   0.0305   3.2820   3.3483

          k = 0.0000 0.2000-0.0007 (  1970 PWs)   bands (ev):

   -46.4164 -18.3371 -18.3135 -18.3078 -10.1104   1.7450   3.0478   3.2190

          k = 0.0000 0.2000 0.1662 (  1963 PWs)   bands (ev):

   -46.4156 -18.3356 -18.3268 -18.3088 -10.0011   1.8203   2.2888   3.2097

          k = 0.0000 0.2000 0.3331 (  1968 PWs)   bands (ev):

   -46.4141 -18.3622 -18.3284 -18.3061  -9.7658   0.8476   2.1740   3.3500

          k = 0.0000 0.2000-0.5014 (  1970 PWs)   bands (ev):

   -46.4133 -18.3788 -18.3260 -18.3046  -9.6382   0.2834   2.3061   3.4260

          k = 0.0000 0.2000-0.3345 (  1967 PWs)   bands (ev):

   -46.4141 -18.3622 -18.3287 -18.3060  -9.7649   0.8432   2.1689   3.3511

          k = 0.0000 0.2000-0.1676 (  1966 PWs)   bands (ev):

   -46.4156 -18.3352 -18.3274 -18.3087 -10.0003   1.8124   2.2865   3.2110

          k = 0.0000 0.4001-0.0013 (  1972 PWs)   bands (ev):

   -46.4147 -18.3775 -18.3100 -18.3038  -9.8123   0.2472   3.2027   3.3864

          k = 0.0000 0.4001 0.1656 (  1976 PWs)   bands (ev):

   -46.4139 -18.3731 -18.3227 -18.3051  -9.7233   0.4209   2.5133   3.3786

          k = 0.0000 0.4001 0.3325 (  1970 PWs)   bands (ev):

   -46.4124 -18.3646 -18.3527 -18.3027  -9.5329   0.8025   1.2991   3.5297

          k = 0.0000 0.4001-0.5020 (  1972 PWs)   bands (ev):

   -46.4117 -18.3684 -18.3597 -18.3013  -9.4306   0.7583   1.0386   3.6120

          k = 0.0000 0.4001-0.3351 (  1967 PWs)   bands (ev):

   -46.4124 -18.3643 -18.3530 -18.3026  -9.5323   0.8015   1.2941   3.5305

          k = 0.0000 0.4001-0.1682 (  1979 PWs)   bands (ev):

   -46.4139 -18.3731 -18.3229 -18.3050  -9.7228   0.4183   2.5100   3.3791

          k = 0.2500-0.2454 0.0140 (  1967 PWs)   bands (ev):

   -46.4144 -18.3469 -18.3376 -18.3064  -9.8224   1.4453   1.7714   3.3215

          k = 0.2500-0.2454 0.1809 (  1971 PWs)   bands (ev):

   -46.4136 -18.3440 -18.3358 -18.3224  -9.7180   1.5489   1.8560   2.5204

          k = 0.2500-0.2454 0.3478 (  1963 PWs)   bands (ev):

   -46.4122 -18.3543 -18.3377 -18.3308  -9.5085   1.1908   1.9371   2.0641

          k = 0.2500-0.2454-0.4867 (  1970 PWs)   bands (ev):

   -46.4114 -18.3694 -18.3343 -18.3288  -9.4036   0.7097   2.0975   2.1891

          k = 0.2500-0.2454-0.3198 (  1971 PWs)   bands (ev):

   -46.4122 -18.3554 -18.3353 -18.3306  -9.5231   1.2561   1.9563   2.0957

          k = 0.2500-0.2454-0.1529 (  1961 PWs)   bands (ev):

   -46.4137 -18.3450 -18.3355 -18.3200  -9.7314   1.5895   1.8840   2.5741

          k = 0.2500-0.0453 0.0134 (  1964 PWs)   bands (ev):

   -46.4158 -18.3493 -18.3098 -18.3093 -10.0227   1.3109   3.0791   3.1806

          k = 0.2500-0.0453 0.1803 (  1979 PWs)   bands (ev):

   -46.4151 -18.3468 -18.3268 -18.3082  -9.9081   1.3764   2.3153   3.1569

          k = 0.2500-0.0453 0.3472 (  1963 PWs)   bands (ev):

   -46.4136 -18.3602 -18.3402 -18.3051  -9.6842   0.9186   1.7569   3.3151

          k = 0.2500-0.0453-0.4873 (  1974 PWs)   bands (ev):

   -46.4128 -18.3761 -18.3360 -18.3036  -9.5752   0.4196   1.9421   3.3997

          k = 0.2500-0.0453-0.3204 (  1968 PWs)   bands (ev):

   -46.4136 -18.3607 -18.3367 -18.3052  -9.7066   0.9975   1.8384   3.3167

          k = 0.2500-0.0453-0.1535 (  1964 PWs)   bands (ev):

   -46.4151 -18.3469 -18.3237 -18.3083  -9.9290   1.4819   2.3746   3.1577

          k = 0.2500 0.1547 0.0127 (  1975 PWs)   bands (ev):

   -46.4153 -18.3473 -18.3223 -18.3082  -9.9423   1.3761   2.4507   3.2330

          k = 0.2500 0.1547 0.1796 (  1965 PWs)   bands (ev):

   -46.4145 -18.3449 -18.3258 -18.3194  -9.8332   1.4476   2.3739   2.5786

          k = 0.2500 0.1547 0.3465 (  1971 PWs)   bands (ev):

   -46.4130 -18.3577 -18.3385 -18.3161  -9.6172   1.0309   1.8181   2.7628

          k = 0.2500 0.1547-0.4880 (  1975 PWs)   bands (ev):

   -46.4123 -18.3732 -18.3346 -18.3144  -9.5104   0.5367   1.9995   2.8641

          k = 0.2500 0.1547-0.3211 (  1970 PWs)   bands (ev):

   -46.4130 -18.3583 -18.3352 -18.3166  -9.6353   1.0987   1.8943   2.7500

          k = 0.2500 0.1547-0.1542 (  1958 PWs)   bands (ev):

   -46.4145 -18.3451 -18.3227 -18.3201  -9.8501   1.5448   2.3983   2.5915

          k = 0.2500-0.6454 0.0154 (  1971 PWs)   bands (ev):

   -46.4135 -18.3617 -18.3396 -18.3044  -9.6792   0.8328   1.7908   3.4132

          k = 0.2500-0.6454 0.1823 (  1969 PWs)   bands (ev):

   -46.4128 -18.3580 -18.3378 -18.3196  -9.5848   0.9918   1.8568   2.6524

          k = 0.2500-0.6454 0.3492 (  1974 PWs)   bands (ev):

   -46.4113 -18.3527 -18.3487 -18.3325  -9.3898   1.2783   1.4572   2.1119

          k = 0.2500-0.6454-0.4853 (  1969 PWs)   bands (ev):

   -46.4106 -18.3647 -18.3485 -18.3296  -9.2888   0.9286   1.4750   2.2614

          k = 0.2500-0.6454-0.3184 (  1969 PWs)   bands (ev):

   -46.4113 -18.3530 -18.3501 -18.3301  -9.3964   1.2495   1.4983   2.1694

          k = 0.2500-0.6454-0.1515 (  1972 PWs)   bands (ev):

   -46.4128 -18.3589 -18.3381 -18.3177  -9.5909   0.9583   1.9282   2.6914

          k = 0.2500-0.4454 0.0147 (  1973 PWs)   bands (ev):

   -46.4130 -18.3734 -18.3369 -18.3033  -9.5967   0.4572   1.9199   3.4720

          k = 0.2500-0.4454 0.1816 (  1984 PWs)   bands (ev):

   -46.4122 -18.3693 -18.3354 -18.3181  -9.5058   0.6234   1.9847   2.7300

          k = 0.2500-0.4454 0.3485 (  1969 PWs)   bands (ev):

   -46.4108 -18.3621 -18.3482 -18.3302  -9.3158   0.9545   1.5351   2.2202

          k = 0.2500-0.4454-0.4860 (  1967 PWs)   bands (ev):

   -46.4100 -18.3626 -18.3587 -18.3278  -9.2162   1.0535   1.1220   2.3563

          k = 0.2500-0.4454-0.3191 (  1971 PWs)   bands (ev):

   -46.4108 -18.3633 -18.3485 -18.3283  -9.3198   0.9139   1.5871   2.2681

          k = 0.2500-0.4454-0.1522 (  1981 PWs)   bands (ev):

   -46.4122 -18.3704 -18.3357 -18.3163  -9.5094   0.5882   2.0470   2.7713

          k =-0.5000 0.4907-0.0281 (  1976 PWs)   bands (ev):

   -46.4114 -18.3684 -18.3639 -18.3006  -9.3927   0.8200   0.8817   3.6430

          k =-0.5000 0.4907 0.1388 (  1969 PWs)   bands (ev):

   -46.4107 -18.3659 -18.3613 -18.3142  -9.3012   0.9312   0.9890   2.9568

          k =-0.5000 0.4907 0.3057 (  1962 PWs)   bands (ev):

   -46.4093 -18.3617 -18.3564 -18.3403  -9.1064   1.1727   1.2215   1.8269

          k =-0.5000 0.4907-0.5288 (  1972 PWs)   bands (ev):

   -46.4085 -18.3628 -18.3548 -18.3493  -9.0023   1.2689   1.3273   1.3933

          k =-0.5000 0.6908-0.0287 (  1973 PWs)   bands (ev):

   -46.4124 -18.3732 -18.3446 -18.3026  -9.5261   0.5369   1.5692   3.5238

          k =-0.5000 0.6908 0.1382 (  1978 PWs)   bands (ev):

   -46.4117 -18.3700 -18.3425 -18.3167  -9.4364   0.6782   1.6681   2.8117

          k =-0.5000 0.6908 0.3051 (  1975 PWs)   bands (ev):

   -46.4103 -18.3646 -18.3440 -18.3379  -9.2464   0.9845   1.6472   1.9000

          k =-0.5000 0.6908-0.5294 (  1981 PWs)   bands (ev):

   -46.4095 -18.3661 -18.3533 -18.3358  -9.1454   1.0856   1.2249   2.0178

          k =-0.5000 0.6908-0.3625 (  1966 PWs)   bands (ev):

   -46.4103 -18.3649 -18.3438 -18.3377  -9.2476   0.9809   1.6530   1.9066

          k =-0.5000 0.6908-0.1956 (  1970 PWs)   bands (ev):

   -46.4117 -18.3701 -18.3424 -18.3166  -9.4375   0.6759   1.6740   2.8175

          k =-0.5000 0.8908-0.0294 (  1974 PWs)   bands (ev):

   -46.4141 -18.3835 -18.3109 -18.3059  -9.7251   0.1007   3.0071   3.3426

          k =-0.5000 0.8908 0.1375 (  1969 PWs)   bands (ev):

   -46.4133 -18.3792 -18.3208 -18.3094  -9.6392   0.2777   2.5907   3.0942

          k =-0.5000 0.8908 0.3044 (  1978 PWs)   bands (ev):

   -46.4119 -18.3714 -18.3493 -18.3064  -9.4568   0.6701   1.4060   3.2702

          k =-0.5000 0.8908-0.5301 (  1974 PWs)   bands (ev):

   -46.4111 -18.3719 -18.3592 -18.3048  -9.3595   0.8123   0.9821   3.3664

          k =-0.5000 0.8908-0.3632 (  1980 PWs)   bands (ev):

   -46.4119 -18.3715 -18.3492 -18.3063  -9.4575   0.6685   1.4097   3.2741

          k =-0.5000 0.8908-0.1963 (  1966 PWs)   bands (ev):

   -46.4133 -18.3792 -18.3208 -18.3093  -9.6398   0.2768   2.5957   3.0965

!    total energy              =    -188.82146060 Ry
     Harris-Foulkes estimate   =    -188.82146061 Ry
     estimated scf accuracy    <          7.3E-09 Ry

     total all-electron energy =     -1248.108453 Ry

     The total energy is the sum of the following terms:

     one-electron contribution =     -71.56613326 Ry
     hartree contribution      =      38.50786836 Ry
     xc contribution           =     -24.73127625 Ry
     ewald contribution        =     -74.40785477 Ry
     one-center paw contrib.   =     -56.62406469 Ry

     convergence has been achieved in  22 iterations

     Forces acting on atoms (Ry/au):

     atom    1 type  1   force =     0.00341212   -0.00052954   -0.00195386
     atom    2 type  2   force =    -0.00341212    0.00052954    0.00195386

     Total force =     0.005611     Total SCF correction =     0.000043


     entering subroutine stress ...

          total   stress  (Ry/bohr**3)                   (kbar)     P=   57.00
   0.00039412   0.00000117  -0.00000032         57.98      0.17     -0.05
   0.00000117   0.00038389   0.00000595          0.17     56.47      0.88
  -0.00000032   0.00000595   0.00038433         -0.05      0.88     56.54


     BFGS Geometry Optimization

     number of scf cycles    =   1
     number of bfgs steps    =   0

     enthalpy new            =    -188.8214606010 Ry

     new trust radius        =       0.0312236402 bohr
     new conv_thr            =       0.0000000100 Ry

     new unit-cell volume =    258.41432 a.u.^3 (    38.29305 Ang^3 )

CELL_PARAMETERS (alat=  6.31168528)
   1.009853099   0.000029183  -0.000007894
   0.990961718   1.009448755   0.000141017
  -0.053338044   0.003484163   1.008209575

ATOMIC_POSITIONS (crystal)
Na       0.456791791   0.323267771   0.226235332
Cl       0.492283520   0.816880851   0.704222998



     Writing output data file NaCl_pegs+pwscf.save
     NEW-OLD atomic charge density approx. for the potential
     NEW k-points:
        k(    1) = (   0.0000000   0.0000000   0.0000000), wk =   0.0166667
        k(    2) = (   0.0000013  -0.0000244   0.1653097), wk =   0.0333333
        k(    3) = (   0.0000026  -0.0000487   0.3306194), wk =   0.0333333
        k(    4) = (  -0.0000039   0.0000731  -0.4959291), wk =   0.0166667
        k(    5) = (  -0.0000057   0.1981337  -0.0006850), wk =   0.0333333
        k(    6) = (  -0.0000044   0.1981093   0.1646247), wk =   0.0333333
        k(    7) = (  -0.0000031   0.1980849   0.3299344), wk =   0.0333333
        k(    8) = (  -0.0000096   0.1982067  -0.4966141), wk =   0.0333333
        k(    9) = (  -0.0000083   0.1981824  -0.3313044), wk =   0.0333333
        k(   10) = (  -0.0000070   0.1981580  -0.1659947), wk =   0.0333333
        k(   11) = (  -0.0000115   0.3962673  -0.0013700), wk =   0.0333333
        k(   12) = (  -0.0000102   0.3962430   0.1639397), wk =   0.0333333
        k(   13) = (  -0.0000089   0.3962186   0.3292494), wk =   0.0333333
        k(   14) = (  -0.0000153   0.3963404  -0.4972991), wk =   0.0333333
        k(   15) = (  -0.0000140   0.3963160  -0.3319894), wk =   0.0333333
        k(   16) = (  -0.0000128   0.3962917  -0.1666797), wk =   0.0333333
        k(   17) = (   0.2475679  -0.2430359   0.0139371), wk =   0.0333333
        k(   18) = (   0.2475692  -0.2430602   0.1792468), wk =   0.0333333
        k(   19) = (   0.2475705  -0.2430846   0.3445565), wk =   0.0333333
        k(   20) = (   0.2475640  -0.2429628  -0.4819919), wk =   0.0333333
        k(   21) = (   0.2475653  -0.2429872  -0.3166823), wk =   0.0333333
        k(   22) = (   0.2475666  -0.2430115  -0.1513726), wk =   0.0333333
        k(   23) = (   0.2475622  -0.0449022   0.0132521), wk =   0.0333333
        k(   24) = (   0.2475635  -0.0449266   0.1785618), wk =   0.0333333
        k(   25) = (   0.2475647  -0.0449509   0.3438715), wk =   0.0333333
        k(   26) = (   0.2475583  -0.0448291  -0.4826770), wk =   0.0333333
        k(   27) = (   0.2475596  -0.0448535  -0.3173673), wk =   0.0333333
        k(   28) = (   0.2475609  -0.0448779  -0.1520576), wk =   0.0333333
        k(   29) = (   0.2475564   0.1532314   0.0125671), wk =   0.0333333
        k(   30) = (   0.2475577   0.1532071   0.1778768), wk =   0.0333333
        k(   31) = (   0.2475590   0.1531827   0.3431865), wk =   0.0333333
        k(   32) = (   0.2475526   0.1533045  -0.4833620), wk =   0.0333333
        k(   33) = (   0.2475538   0.1532802  -0.3180523), wk =   0.0333333
        k(   34) = (   0.2475551   0.1532558  -0.1527426), wk =   0.0333333
        k(   35) = (   0.2475794  -0.6393032   0.0153072), wk =   0.0333333
        k(   36) = (   0.2475806  -0.6393276   0.1806169), wk =   0.0333333
        k(   37) = (   0.2475819  -0.6393519   0.3459266), wk =   0.0333333
        k(   38) = (   0.2475755  -0.6392301  -0.4806219), wk =   0.0333333
        k(   39) = (   0.2475768  -0.6392545  -0.3153122), wk =   0.0333333
        k(   40) = (   0.2475781  -0.6392788  -0.1500025), wk =   0.0333333
        k(   41) = (   0.2475736  -0.4411695   0.0146222), wk =   0.0333333
        k(   42) = (   0.2475749  -0.4411939   0.1799319), wk =   0.0333333
        k(   43) = (   0.2475762  -0.4412183   0.3452416), wk =   0.0333333
        k(   44) = (   0.2475697  -0.4410965  -0.4813069), wk =   0.0333333
        k(   45) = (   0.2475710  -0.4411208  -0.3159972), wk =   0.0333333
        k(   46) = (   0.2475723  -0.4411452  -0.1506875), wk =   0.0333333
        k(   47) = (  -0.4951358   0.4860718  -0.0278743), wk =   0.0166667
        k(   48) = (  -0.4951345   0.4860474   0.1374354), wk =   0.0333333
        k(   49) = (  -0.4951332   0.4860230   0.3027451), wk =   0.0333333
        k(   50) = (  -0.4951397   0.4861449  -0.5238034), wk =   0.0166667
        k(   51) = (  -0.4951415   0.6842054  -0.0285593), wk =   0.0333333
        k(   52) = (  -0.4951402   0.6841811   0.1367504), wk =   0.0333333
        k(   53) = (  -0.4951389   0.6841567   0.3020601), wk =   0.0333333
        k(   54) = (  -0.4951454   0.6842785  -0.5244884), wk =   0.0333333
        k(   55) = (  -0.4951441   0.6842541  -0.3591787), wk =   0.0333333
        k(   56) = (  -0.4951428   0.6842298  -0.1938690), wk =   0.0333333
        k(   57) = (  -0.4951472   0.8823391  -0.0292443), wk =   0.0333333
        k(   58) = (  -0.4951460   0.8823147   0.1360654), wk =   0.0333333
        k(   59) = (  -0.4951447   0.8822904   0.3013751), wk =   0.0333333
        k(   60) = (  -0.4951511   0.8824122  -0.5251734), wk =   0.0333333
        k(   61) = (  -0.4951498   0.8823878  -0.3598637), wk =   0.0333333
        k(   62) = (  -0.4951485   0.8823634  -0.1945540), wk =   0.0333333

     Check: negative/imaginary core charge=   -0.000005    0.000000
     extrapolated charge   16.44180, renormalised to   16.00000

     total cpu time spent up to now is       20.9 secs

     Self-consistent Calculation

     iteration #  1     ecut=    60.00 Ry     beta=0.70
     CG style diagonalization
     ethr =  1.00E-06,  avg # of iterations =  6.0

     total cpu time spent up to now is       21.9 secs

     total energy              =    -188.81628778 Ry
     Harris-Foulkes estimate   =    -186.98870064 Ry
     estimated scf accuracy    <       0.01909058 Ry

     iteration #  2     ecut=    60.00 Ry     beta=0.70
     CG style diagonalization
     ethr =  1.19E-04,  avg # of iterations =  3.9

     total cpu time spent up to now is       22.8 secs

     total energy              =    -188.82189132 Ry
     Harris-Foulkes estimate   =    -188.82979299 Ry
     estimated scf accuracy    <       0.01243399 Ry

     iteration #  3     ecut=    60.00 Ry     beta=0.70
     CG style diagonalization
     ethr =  7.77E-05,  avg # of iterations =  3.6

     total cpu time spent up to now is       23.5 secs

     total energy              =    -188.82297480 Ry
     Harris-Foulkes estimate   =    -188.82413108 Ry
     estimated scf accuracy    <       0.00138534 Ry

     iteration #  4     ecut=    60.00 Ry     beta=0.70
     CG style diagonalization
     ethr =  8.66E-06,  avg # of iterations =  4.3

     total cpu time spent up to now is       24.2 secs

     total energy              =    -188.82368888 Ry
     Harris-Foulkes estimate   =    -188.82372264 Ry
     estimated scf accuracy    <       0.00008121 Ry

     iteration #  5     ecut=    60.00 Ry     beta=0.70
     CG style diagonalization
     ethr =  5.08E-07,  avg # of iterations =  5.4

     total cpu time spent up to now is       25.2 secs

     total energy              =    -188.82383242 Ry
     Harris-Foulkes estimate   =    -188.82386372 Ry
     estimated scf accuracy    <       0.00004976 Ry

     iteration #  6     ecut=    60.00 Ry     beta=0.70
     CG style diagonalization
     ethr =  3.11E-07,  avg # of iterations =  4.8

     total cpu time spent up to now is       26.0 secs

     total energy              =    -188.82392367 Ry
     Harris-Foulkes estimate   =    -188.82392412 Ry
     estimated scf accuracy    <       0.00000278 Ry

     iteration #  7     ecut=    60.00 Ry     beta=0.70
     CG style diagonalization
     c_bands:  1 eigenvalues not converged
     c_bands:  1 eigenvalues not converged
     c_bands:  1 eigenvalues not converged
     c_bands:  1 eigenvalues not converged
     c_bands:  1 eigenvalues not converged
     c_bands:  1 eigenvalues not converged
     ethr =  1.73E-08,  avg # of iterations =  7.0

     total cpu time spent up to now is       27.2 secs

     total energy              =    -188.82396089 Ry
     Harris-Foulkes estimate   =    -188.82396349 Ry
     estimated scf accuracy    <       0.00000891 Ry

     iteration #  8     ecut=    60.00 Ry     beta=0.70
     CG style diagonalization
     ethr =  1.73E-08,  avg # of iterations =  5.1

     total cpu time spent up to now is       28.1 secs

     total energy              =    -188.82405684 Ry
     Harris-Foulkes estimate   =    -188.82396655 Ry
     estimated scf accuracy    <       0.00000393 Ry

     iteration #  9     ecut=    60.00 Ry     beta=0.70
     CG style diagonalization
     c_bands:  1 eigenvalues not converged
     c_bands:  1 eigenvalues not converged
     c_bands:  1 eigenvalues not converged
     c_bands:  1 eigenvalues not converged
     ethr =  1.73E-08,  avg # of iterations =  5.3

     total cpu time spent up to now is       29.0 secs

     total energy              =    -188.82389543 Ry
     Harris-Foulkes estimate   =    -188.82410845 Ry
     estimated scf accuracy    <       0.00031855 Ry

     iteration # 10     ecut=    60.00 Ry     beta=0.70
     CG style diagonalization
     ethr =  1.73E-08,  avg # of iterations =  6.1

     total cpu time spent up to now is       30.1 secs

     total energy              =    -188.82396505 Ry
     Harris-Foulkes estimate   =    -188.82396551 Ry
     estimated scf accuracy    <       0.00000099 Ry

     iteration # 11     ecut=    60.00 Ry     beta=0.70
     CG style diagonalization
     ethr =  6.19E-09,  avg # of iterations =  5.4

     total cpu time spent up to now is       31.0 secs

     total energy              =    -188.82396759 Ry
     Harris-Foulkes estimate   =    -188.82396780 Ry
     estimated scf accuracy    <       0.00000053 Ry

     iteration # 12     ecut=    60.00 Ry     beta=0.70
     CG style diagonalization
     ethr =  3.28E-09,  avg # of iterations =  4.1

     total cpu time spent up to now is       31.8 secs

     total energy              =    -188.82396789 Ry
     Harris-Foulkes estimate   =    -188.82396792 Ry
     estimated scf accuracy    <       0.00000017 Ry

     iteration # 13     ecut=    60.00 Ry     beta=0.70
     CG style diagonalization
     ethr =  1.06E-09,  avg # of iterations =  4.7

     total cpu time spent up to now is       32.6 secs

     total energy              =    -188.82396810 Ry
     Harris-Foulkes estimate   =    -188.82396810 Ry
     estimated scf accuracy    <       0.00000007 Ry

     iteration # 14     ecut=    60.00 Ry     beta=0.70
     CG style diagonalization
     ethr =  4.39E-10,  avg # of iterations =  4.7

     total cpu time spent up to now is       33.5 secs

     total energy              =    -188.82396815 Ry
     Harris-Foulkes estimate   =    -188.82396816 Ry
     estimated scf accuracy    <       0.00000005 Ry

     iteration # 15     ecut=    60.00 Ry     beta=0.70
     CG style diagonalization
     ethr =  3.42E-10,  avg # of iterations =  4.1

     total cpu time spent up to now is       34.3 secs

     total energy              =    -188.82396826 Ry
     Harris-Foulkes estimate   =    -188.82396819 Ry
     estimated scf accuracy    <       0.00000003 Ry

     iteration # 16     ecut=    60.00 Ry     beta=0.70
     CG style diagonalization
     ethr =  2.06E-10,  avg # of iterations =  4.5

     total cpu time spent up to now is       35.1 secs

     total energy              =    -188.82396817 Ry
     Harris-Foulkes estimate   =    -188.82396829 Ry
     estimated scf accuracy    <       0.00000025 Ry

     iteration # 17     ecut=    60.00 Ry     beta=0.70
     CG style diagonalization
     ethr =  2.06E-10,  avg # of iterations =  4.6

     total cpu time spent up to now is       35.8 secs

     total energy              =    -188.82396818 Ry
     Harris-Foulkes estimate   =    -188.82396820 Ry
     estimated scf accuracy    <       0.00000003 Ry

     iteration # 18     ecut=    60.00 Ry     beta=0.70
     CG style diagonalization
     ethr =  2.05E-10,  avg # of iterations =  3.9

     total cpu time spent up to now is       36.5 secs

     End of self-consistent calculation

          k = 0.0000 0.0000 0.0000 (  1969 PWs)   bands (ev):

   -46.7231 -18.6228 -18.6182 -18.6163 -10.4541   2.6836   2.7566   2.8533

          k = 0.0000 0.0000 0.1653 (  1965 PWs)   bands (ev):

   -46.7225 -18.6362 -18.6183 -18.6161 -10.3417   1.8270   2.8004   2.8603

          k = 0.0000 0.0000 0.3306 (  1975 PWs)   bands (ev):

   -46.7211 -18.6681 -18.6158 -18.6132 -10.1006   0.4534   2.9317   2.9937

          k = 0.0000 0.0001-0.4959 (  1980 PWs)   bands (ev):

   -46.7205 -18.6841 -18.6145 -18.6117  -9.9705  -0.1195   3.0010   3.0647

          k = 0.0000 0.1981-0.0007 (  1970 PWs)   bands (ev):

   -46.7222 -18.6409 -18.6206 -18.6143 -10.2976   1.5266   2.7747   2.9413

          k = 0.0000 0.1981 0.1646 (  1963 PWs)   bands (ev):

   -46.7215 -18.6397 -18.6321 -18.6156 -10.1955   1.5973   2.0530   2.9303

          k = 0.0000 0.1981 0.3299 (  1968 PWs)   bands (ev):

   -46.7202 -18.6636 -18.6334 -18.6133  -9.9766   0.6654   1.9418   3.0644

          k = 0.0000 0.1982-0.4966 (  1970 PWs)   bands (ev):

   -46.7196 -18.6785 -18.6313 -18.6119  -9.8584   0.1244   2.0679   3.1370

          k = 0.0000 0.1982-0.3313 (  1967 PWs)   bands (ev):

   -46.7202 -18.6636 -18.6336 -18.6132  -9.9757   0.6607   1.9366   3.0654

          k = 0.0000 0.1982-0.1660 (  1966 PWs)   bands (ev):

   -46.7215 -18.6392 -18.6328 -18.6154 -10.1947   1.5889   2.0508   2.9315

          k = 0.0000 0.3963-0.0014 (  1972 PWs)   bands (ev):

   -46.7207 -18.6770 -18.6175 -18.6108 -10.0215   0.0882   2.9241   3.1019

          k = 0.0000 0.3962 0.1639 (  1976 PWs)   bands (ev):

   -46.7201 -18.6732 -18.6286 -18.6122  -9.9377   0.2558   2.2666   3.0921

          k = 0.0000 0.3962 0.3292 (  1970 PWs)   bands (ev):

   -46.7188 -18.6658 -18.6554 -18.6102  -9.7589   0.6229   1.1014   3.2355

          k = 0.0000 0.3963-0.4973 (  1972 PWs)   bands (ev):

   -46.7181 -18.6696 -18.6616 -18.6090  -9.6632   0.5810   0.8501   3.3136

          k = 0.0000 0.3963-0.3320 (  1967 PWs)   bands (ev):

   -46.7188 -18.6656 -18.6558 -18.6102  -9.7583   0.6219   1.0961   3.2363

          k = 0.0000 0.3963-0.1667 (  1979 PWs)   bands (ev):

   -46.7201 -18.6732 -18.6287 -18.6122  -9.9371   0.2531   2.2632   3.0926

          k = 0.2476-0.2430 0.0139 (  1967 PWs)   bands (ev):

   -46.7205 -18.6499 -18.6415 -18.6135 -10.0290   1.2358   1.5568   3.0392

          k = 0.2476-0.2431 0.1792 (  1971 PWs)   bands (ev):

   -46.7198 -18.6474 -18.6400 -18.6279  -9.9314   1.3339   1.6387   2.2763

          k = 0.2476-0.2431 0.3446 (  1963 PWs)   bands (ev):

   -46.7185 -18.6569 -18.6419 -18.6354  -9.7361   0.9953   1.7129   1.8399

          k = 0.2476-0.2430-0.4820 (  1970 PWs)   bands (ev):

   -46.7179 -18.6705 -18.6388 -18.6336  -9.6385   0.5360   1.8639   1.9606

          k = 0.2476-0.2430-0.3167 (  1971 PWs)   bands (ev):

   -46.7186 -18.6580 -18.6396 -18.6351  -9.7493   1.0583   1.7305   1.8701

          k = 0.2476-0.2430-0.1514 (  1961 PWs)   bands (ev):

   -46.7199 -18.6485 -18.6397 -18.6256  -9.9437   1.3740   1.6657   2.3258

          k = 0.2476-0.0449 0.0133 (  1964 PWs)   bands (ev):

   -46.7217 -18.6519 -18.6167 -18.6162 -10.2163   1.1086   2.8073   2.9044

          k = 0.2476-0.0449 0.1786 (  1979 PWs)   bands (ev):

   -46.7211 -18.6497 -18.6319 -18.6152 -10.1094   1.1706   2.0786   2.8822

          k = 0.2476-0.0450 0.3439 (  1963 PWs)   bands (ev):

   -46.7198 -18.6619 -18.6438 -18.6124  -9.9008   0.7330   1.5417   3.0334

          k = 0.2476-0.0448-0.4827 (  1974 PWs)   bands (ev):

   -46.7191 -18.6763 -18.6402 -18.6111  -9.7994   0.2554   1.7175   3.1140

          k = 0.2476-0.0449-0.3174 (  1968 PWs)   bands (ev):

   -46.7198 -18.6626 -18.6406 -18.6125  -9.9211   0.8092   1.6179   3.0347

          k = 0.2476-0.0449-0.1521 (  1964 PWs)   bands (ev):

   -46.7211 -18.6501 -18.6289 -18.6153 -10.1283   1.2730   2.1328   2.8827

          k = 0.2476 0.1532 0.0126 (  1975 PWs)   bands (ev):

   -46.7213 -18.6502 -18.6279 -18.6151 -10.1412   1.1709   2.2073   2.9547

          k = 0.2476 0.1532 0.1779 (  1965 PWs)   bands (ev):

   -46.7206 -18.6481 -18.6309 -18.6253 -10.0394   1.2387   2.1344   2.3315

          k = 0.2476 0.1532 0.3432 (  1971 PWs)   bands (ev):

   -46.7193 -18.6598 -18.6423 -18.6223  -9.8380   0.8414   1.6005   2.5071

          k = 0.2476 0.1533-0.4834 (  1975 PWs)   bands (ev):

   -46.7187 -18.6738 -18.6389 -18.6208  -9.7385   0.3684   1.7725   2.6036

          k = 0.2476 0.1533-0.3181 (  1970 PWs)   bands (ev):

   -46.7193 -18.6605 -18.6393 -18.6227  -9.8542   0.9065   1.6716   2.4947

          k = 0.2476 0.1533-0.1527 (  1958 PWs)   bands (ev):

   -46.7206 -18.6485 -18.6280 -18.6259 -10.0546   1.3329   2.1535   2.3451

          k = 0.2476-0.6393 0.0153 (  1971 PWs)   bands (ev):

   -46.7197 -18.6630 -18.6436 -18.6118  -9.8960   0.6510   1.5732   3.1268

          k = 0.2476-0.6393 0.1806 (  1969 PWs)   bands (ev):

   -46.7191 -18.6598 -18.6421 -18.6254  -9.8075   0.8044   1.6361   2.4024

          k = 0.2476-0.6394 0.3459 (  1974 PWs)   bands (ev):

   -46.7178 -18.6555 -18.6519 -18.6369  -9.6252   1.0789   1.2563   1.8843

          k = 0.2476-0.6392-0.4806 (  1969 PWs)   bands (ev):

   -46.7172 -18.6665 -18.6516 -18.6344  -9.5311   0.7470   1.2712   2.0266

          k = 0.2476-0.6393-0.3153 (  1969 PWs)   bands (ev):

   -46.7178 -18.6555 -18.6535 -18.6347  -9.6313   1.0520   1.2951   1.9383

          k = 0.2476-0.6393-0.1500 (  1972 PWs)   bands (ev):

   -46.7191 -18.6606 -18.6425 -18.6236  -9.8131   0.7722   1.7057   2.4376

          k = 0.2476-0.4412 0.0146 (  1973 PWs)   bands (ev):

   -46.7192 -18.6736 -18.6412 -18.6108  -9.8193   0.2910   1.6961   3.1829

          k = 0.2476-0.4412 0.1799 (  1984 PWs)   bands (ev):

   -46.7186 -18.6701 -18.6399 -18.6241  -9.7339   0.4515   1.7576   2.4764

          k = 0.2476-0.4412 0.3452 (  1969 PWs)   bands (ev):

   -46.7173 -18.6638 -18.6517 -18.6348  -9.5562   0.7712   1.3286   1.9876

          k = 0.2476-0.4411-0.4813 (  1967 PWs)   bands (ev):

   -46.7167 -18.6646 -18.6608 -18.6328  -9.4636   0.8674   0.9331   2.1173

          k = 0.2476-0.4411-0.3160 (  1971 PWs)   bands (ev):

   -46.7173 -18.6649 -18.6520 -18.6331  -9.5602   0.7326   1.3791   2.0325

          k = 0.2476-0.4411-0.1507 (  1981 PWs)   bands (ev):

   -46.7186 -18.6710 -18.6403 -18.6224  -9.7375   0.4180   1.8188   2.5140

          k =-0.4951 0.4861-0.0279 (  1976 PWs)   bands (ev):

   -46.7179 -18.6697 -18.6652 -18.6084  -9.6285   0.6405   0.6986   3.3446

          k =-0.4951 0.4860 0.1374 (  1969 PWs)   bands (ev):

   -46.7173 -18.6675 -18.6629 -18.6207  -9.5430   0.7489   0.8033   2.6913

          k =-0.4951 0.4860 0.3027 (  1962 PWs)   bands (ev):

   -46.7160 -18.6640 -18.6588 -18.6441  -9.3619   0.9840   1.0302   1.6111

          k =-0.4951 0.4861-0.5238 (  1972 PWs)   bands (ev):

   -46.7154 -18.6653 -18.6574 -18.6519  -9.2656   1.0786   1.1333   1.1959

          k =-0.4951 0.6842-0.0286 (  1973 PWs)   bands (ev):

   -46.7188 -18.6736 -18.6480 -18.6102  -9.7535   0.3686   1.3594   3.2316

          k =-0.4951 0.6842 0.1368 (  1978 PWs)   bands (ev):

   -46.7182 -18.6708 -18.6462 -18.6230  -9.6694   0.5056   1.4550   2.5528

          k =-0.4951 0.6842 0.3021 (  1975 PWs)   bands (ev):

   -46.7169 -18.6664 -18.6474 -18.6421  -9.4921   0.8021   1.4358   1.6811

          k =-0.4951 0.6843-0.5245 (  1981 PWs)   bands (ev):

   -46.7163 -18.6681 -18.6555 -18.6402  -9.3982   0.9006   1.0319   1.7936

          k =-0.4951 0.6843-0.3592 (  1966 PWs)   bands (ev):

   -46.7169 -18.6667 -18.6471 -18.6420  -9.4932   0.7985   1.4415   1.6876

          k =-0.4951 0.6842-0.1939 (  1970 PWs)   bands (ev):

   -46.7182 -18.6710 -18.6460 -18.6228  -9.6704   0.5032   1.4608   2.5584

          k =-0.4951 0.8823-0.0292 (  1974 PWs)   bands (ev):

   -46.7202 -18.6824 -18.6177 -18.6132  -9.9410  -0.0517   2.7392   3.0596

          k =-0.4951 0.8823 0.1361 (  1969 PWs)   bands (ev):

   -46.7196 -18.6787 -18.6266 -18.6163  -9.8600   0.1192   2.3397   2.8229

          k =-0.4951 0.8823 0.3014 (  1978 PWs)   bands (ev):

   -46.7183 -18.6723 -18.6521 -18.6136  -9.6886   0.4973   1.2028   2.9902

          k =-0.4952 0.8824-0.5252 (  1974 PWs)   bands (ev):

   -46.7177 -18.6732 -18.6607 -18.6122  -9.5975   0.6346   0.7949   3.0816

          k =-0.4951 0.8824-0.3599 (  1980 PWs)   bands (ev):

   -46.7183 -18.6724 -18.6520 -18.6135  -9.6892   0.4956   1.2064   2.9940

          k =-0.4951 0.8824-0.1946 (  1966 PWs)   bands (ev):

   -46.7196 -18.6788 -18.6265 -18.6162  -9.8606   0.1182   2.3448   2.8250

!    total energy              =    -188.82396819 Ry
     Harris-Foulkes estimate   =    -188.82396819 Ry
     estimated scf accuracy    <          1.0E-09 Ry

     total all-electron energy =     -1248.110961 Ry

     The total energy is the sum of the following terms:

     one-electron contribution =     -72.69102550 Ry
     hartree contribution      =      38.90424810 Ry
     xc contribution           =     -24.71721397 Ry
     ewald contribution        =     -73.69749452 Ry
     one-center paw contrib.   =     -56.62248231 Ry

     convergence has been achieved in  18 iterations

     Forces acting on atoms (Ry/au):

     atom    1 type  1   force =     0.00269451   -0.00041436   -0.00152228
     atom    2 type  2   force =    -0.00269451    0.00041436    0.00152228

     Total force =     0.004416     Total SCF correction =     0.000019


     entering subroutine stress ...

          total   stress  (Ry/bohr**3)                   (kbar)     P=   42.84
   0.00029682  -0.00000041  -0.00000379         43.66     -0.06     -0.56
  -0.00000041   0.00028787   0.00000543         -0.06     42.35      0.80
  -0.00000379   0.00000543   0.00028894         -0.56      0.80     42.50


     number of scf cycles    =   2
     number of bfgs steps    =   1

     enthalpy old            =    -188.8214606010 Ry
     enthalpy new            =    -188.8239681926 Ry

     CASE: enthalpy_new < enthalpy_old

     new trust radius        =       0.0345062349 bohr
     new conv_thr            =       0.0000000003 Ry

     new unit-cell volume =    266.66569 a.u.^3 (    39.51578 Ang^3 )

CELL_PARAMETERS (alat=  6.31168528)
   1.020690666   0.000014046  -0.000146108
   1.001581104   1.019945277   0.000202192
  -0.054048470   0.003716273   1.018755168

ATOMIC_POSITIONS (crystal)
Na       0.457483144   0.323173910   0.225885936
Cl       0.491592167   0.816974712   0.704572393



     Writing output data file NaCl_pegs+pwscf.save
     NEW-OLD atomic charge density approx. for the potential
     NEW k-points:
        k(    1) = (   0.0000000   0.0000000   0.0000000), wk =   0.0166667
        k(    2) = (   0.0000234  -0.0000554   0.1635998), wk =   0.0333333
        k(    3) = (   0.0000468  -0.0001109   0.3271996), wk =   0.0333333
        k(    4) = (  -0.0000703   0.0001663  -0.4907994), wk =   0.0166667
        k(    5) = (  -0.0000028   0.1960918  -0.0007155), wk =   0.0333333
        k(    6) = (   0.0000206   0.1960364   0.1628843), wk =   0.0333333
        k(    7) = (   0.0000440   0.1959810   0.3264841), wk =   0.0333333
        k(    8) = (  -0.0000731   0.1962581  -0.4915149), wk =   0.0333333
        k(    9) = (  -0.0000496   0.1962027  -0.3279151), wk =   0.0333333
        k(   10) = (  -0.0000262   0.1961473  -0.1643153), wk =   0.0333333
        k(   11) = (  -0.0000056   0.3921837  -0.0014309), wk =   0.0333333
        k(   12) = (   0.0000178   0.3921283   0.1621689), wk =   0.0333333
        k(   13) = (   0.0000412   0.3920728   0.3257687), wk =   0.0333333
        k(   14) = (  -0.0000759   0.3923500  -0.4922303), wk =   0.0333333
        k(   15) = (  -0.0000524   0.3922945  -0.3286305), wk =   0.0333333
        k(   16) = (  -0.0000290   0.3922391  -0.1650307), wk =   0.0333333
        k(   17) = (   0.2449375  -0.2405301   0.0138722), wk =   0.0333333
        k(   18) = (   0.2449609  -0.2405856   0.1774720), wk =   0.0333333
        k(   19) = (   0.2449843  -0.2406410   0.3410718), wk =   0.0333333
        k(   20) = (   0.2448672  -0.2403638  -0.4769272), wk =   0.0333333
        k(   21) = (   0.2448906  -0.2404193  -0.3133274), wk =   0.0333333
        k(   22) = (   0.2449141  -0.2404747  -0.1497276), wk =   0.0333333
        k(   23) = (   0.2449347  -0.0444383   0.0131567), wk =   0.0333333
        k(   24) = (   0.2449581  -0.0444937   0.1767565), wk =   0.0333333
        k(   25) = (   0.2449815  -0.0445491   0.3403563), wk =   0.0333333
        k(   26) = (   0.2448644  -0.0442720  -0.4776427), wk =   0.0333333
        k(   27) = (   0.2448878  -0.0443274  -0.3140429), wk =   0.0333333
        k(   28) = (   0.2449113  -0.0443828  -0.1504431), wk =   0.0333333
        k(   29) = (   0.2449319   0.1516536   0.0124413), wk =   0.0333333
        k(   30) = (   0.2449553   0.1515981   0.1760411), wk =   0.0333333
        k(   31) = (   0.2449787   0.1515427   0.3396409), wk =   0.0333333
        k(   32) = (   0.2448616   0.1518199  -0.4783581), wk =   0.0333333
        k(   33) = (   0.2448850   0.1517644  -0.3147583), wk =   0.0333333
        k(   34) = (   0.2449085   0.1517090  -0.1511585), wk =   0.0333333
        k(   35) = (   0.2449431  -0.6327138   0.0153031), wk =   0.0333333
        k(   36) = (   0.2449665  -0.6327692   0.1789029), wk =   0.0333333
        k(   37) = (   0.2449899  -0.6328247   0.3425027), wk =   0.0333333
        k(   38) = (   0.2448728  -0.6325475  -0.4754963), wk =   0.0333333
        k(   39) = (   0.2448962  -0.6326030  -0.3118965), wk =   0.0333333
        k(   40) = (   0.2449197  -0.6326584  -0.1482967), wk =   0.0333333
        k(   41) = (   0.2449403  -0.4366220   0.0145877), wk =   0.0333333
        k(   42) = (   0.2449637  -0.4366774   0.1781875), wk =   0.0333333
        k(   43) = (   0.2449871  -0.4367328   0.3417873), wk =   0.0333333
        k(   44) = (   0.2448700  -0.4364557  -0.4762117), wk =   0.0333333
        k(   45) = (   0.2448934  -0.4365111  -0.3126119), wk =   0.0333333
        k(   46) = (   0.2449169  -0.4365665  -0.1490121), wk =   0.0333333
        k(   47) = (  -0.4898750   0.4810602  -0.0277444), wk =   0.0166667
        k(   48) = (  -0.4898516   0.4810048   0.1358554), wk =   0.0333333
        k(   49) = (  -0.4898281   0.4809494   0.2994552), wk =   0.0333333
        k(   50) = (  -0.4899452   0.4812265  -0.5185438), wk =   0.0166667
        k(   51) = (  -0.4898778   0.6771521  -0.0284599), wk =   0.0333333
        k(   52) = (  -0.4898544   0.6770967   0.1351399), wk =   0.0333333
        k(   53) = (  -0.4898309   0.6770412   0.2987397), wk =   0.0333333
        k(   54) = (  -0.4899480   0.6773184  -0.5192592), wk =   0.0333333
        k(   55) = (  -0.4899246   0.6772629  -0.3556595), wk =   0.0333333
        k(   56) = (  -0.4899012   0.6772075  -0.1920597), wk =   0.0333333
        k(   57) = (  -0.4898806   0.8732439  -0.0291753), wk =   0.0333333
        k(   58) = (  -0.4898572   0.8731885   0.1344245), wk =   0.0333333
        k(   59) = (  -0.4898337   0.8731331   0.2980243), wk =   0.0333333
        k(   60) = (  -0.4899508   0.8734102  -0.5199747), wk =   0.0333333
        k(   61) = (  -0.4899274   0.8733548  -0.3563749), wk =   0.0333333
        k(   62) = (  -0.4899040   0.8732994  -0.1927751), wk =   0.0333333

     Check: negative/imaginary core charge=   -0.000004    0.000000
     extrapolated charge   16.47959, renormalised to   16.00000

     total cpu time spent up to now is       37.3 secs

     Self-consistent Calculation

     iteration #  1     ecut=    60.00 Ry     beta=0.70
     CG style diagonalization
     c_bands:  1 eigenvalues not converged
     c_bands:  1 eigenvalues not converged
     c_bands:  1 eigenvalues not converged
     c_bands:  1 eigenvalues not converged
     c_bands:  1 eigenvalues not converged
     ethr =  1.00E-06,  avg # of iterations =  7.2

     total cpu time spent up to now is       38.5 secs

     total energy              =    -188.81509962 Ry
     Harris-Foulkes estimate   =    -186.80999951 Ry
     estimated scf accuracy    <       0.02282132 Ry

     iteration #  2     ecut=    60.00 Ry     beta=0.70
     CG style diagonalization
     ethr =  1.43E-04,  avg # of iterations =  4.0

     total cpu time spent up to now is       39.3 secs

     total energy              =    -188.82335764 Ry
     Harris-Foulkes estimate   =    -188.83310769 Ry
     estimated scf accuracy    <       0.01609526 Ry

     iteration #  3     ecut=    60.00 Ry     beta=0.70
     CG style diagonalization
     ethr =  1.01E-04,  avg # of iterations =  3.6

     total cpu time spent up to now is       39.8 secs

     total energy              =    -188.82432853 Ry
     Harris-Foulkes estimate   =    -188.82607380 Ry
     estimated scf accuracy    <       0.00212497 Ry

     iteration #  4     ecut=    60.00 Ry     beta=0.70
     CG style diagonalization
     ethr =  1.33E-05,  avg # of iterations =  4.1

     total cpu time spent up to now is       40.5 secs

     total energy              =    -188.82523510 Ry
     Harris-Foulkes estimate   =    -188.82526888 Ry
     estimated scf accuracy    <       0.00008564 Ry

     iteration #  5     ecut=    60.00 Ry     beta=0.70
     CG style diagonalization
     ethr =  5.35E-07,  avg # of iterations =  5.5

     total cpu time spent up to now is       41.6 secs

     total energy              =    -188.82572557 Ry
     Harris-Foulkes estimate   =    -188.82577036 Ry
     estimated scf accuracy    <       0.00007752 Ry

     iteration #  6     ecut=    60.00 Ry     beta=0.70
     CG style diagonalization
     c_bands:  1 eigenvalues not converged
     ethr =  4.85E-07,  avg # of iterations =  4.6

     total cpu time spent up to now is       42.5 secs

     total energy              =    -188.82589908 Ry
     Harris-Foulkes estimate   =    -188.82589902 Ry
     estimated scf accuracy    <       0.00000086 Ry

     iteration #  7     ecut=    60.00 Ry     beta=0.70
     CG style diagonalization
     c_bands:  1 eigenvalues not converged
     c_bands:  1 eigenvalues not converged
     c_bands:  1 eigenvalues not converged
     c_bands:  1 eigenvalues not converged
     c_bands:  1 eigenvalues not converged
     c_bands:  2 eigenvalues not converged
     c_bands:  1 eigenvalues not converged
     c_bands:  1 eigenvalues not converged
     c_bands:  1 eigenvalues not converged
     c_bands:  1 eigenvalues not converged
     c_bands:  1 eigenvalues not converged
     c_bands:  1 eigenvalues not converged
     c_bands:  1 eigenvalues not converged
     c_bands:  1 eigenvalues not converged
     c_bands:  1 eigenvalues not converged
     c_bands:  1 eigenvalues not converged
     c_bands:  1 eigenvalues not converged
     c_bands:  1 eigenvalues not converged
     c_bands:  1 eigenvalues not converged
     c_bands:  1 eigenvalues not converged
     ethr =  5.35E-09,  avg # of iterations =  8.7

     total cpu time spent up to now is       44.1 secs

     total energy              =    -188.82600468 Ry
     Harris-Foulkes estimate   =    -188.82600560 Ry
     estimated scf accuracy    <       0.00000975 Ry

     iteration #  8     ecut=    60.00 Ry     beta=0.70
     CG style diagonalization
     c_bands:  1 eigenvalues not converged
     c_bands:  1 eigenvalues not converged
     c_bands:  2 eigenvalues not converged
     ethr =  5.35E-09,  avg # of iterations =  5.7

     total cpu time spent up to now is       45.1 secs

     total energy              =    -188.82601793 Ry
     Harris-Foulkes estimate   =    -188.82601742 Ry
     estimated scf accuracy    <       0.00000886 Ry

     iteration #  9     ecut=    60.00 Ry     beta=0.70
     CG style diagonalization
     c_bands:  1 eigenvalues not converged
     ethr =  5.35E-09,  avg # of iterations =  4.3

     total cpu time spent up to now is       46.7 secs

     total energy              =    -188.82601434 Ry
     Harris-Foulkes estimate   =    -188.82602000 Ry
     estimated scf accuracy    <       0.00001081 Ry

     iteration # 10     ecut=    60.00 Ry     beta=0.70
     CG style diagonalization
     ethr =  5.35E-09,  avg # of iterations =  4.6

     total cpu time spent up to now is       48.1 secs

     total energy              =    -188.82601699 Ry
     Harris-Foulkes estimate   =    -188.82601713 Ry
     estimated scf accuracy    <       0.00000094 Ry

     iteration # 11     ecut=    60.00 Ry     beta=0.70
     CG style diagonalization
     ethr =  5.35E-09,  avg # of iterations =  4.4

     total cpu time spent up to now is       48.9 secs

     total energy              =    -188.82601754 Ry
     Harris-Foulkes estimate   =    -188.82601767 Ry
     estimated scf accuracy    <       0.00000133 Ry

     iteration # 12     ecut=    60.00 Ry     beta=0.70
     CG style diagonalization
     ethr =  5.35E-09,  avg # of iterations =  3.3

     total cpu time spent up to now is       50.0 secs

     total energy              =    -188.82601717 Ry
     Harris-Foulkes estimate   =    -188.82601762 Ry
     estimated scf accuracy    <       0.00000114 Ry

     iteration # 13     ecut=    60.00 Ry     beta=0.70
     CG style diagonalization
     ethr =  5.35E-09,  avg # of iterations =  3.6

     total cpu time spent up to now is       50.8 secs

     total energy              =    -188.82601729 Ry
     Harris-Foulkes estimate   =    -188.82601732 Ry
     estimated scf accuracy    <       0.00000035 Ry

     iteration # 14     ecut=    60.00 Ry     beta=0.70
     CG style diagonalization
     ethr =  2.19E-09,  avg # of iterations =  4.0

     total cpu time spent up to now is       52.1 secs

     total energy              =    -188.82601734 Ry
     Harris-Foulkes estimate   =    -188.82601743 Ry
     estimated scf accuracy    <       0.00000030 Ry

     iteration # 15     ecut=    60.00 Ry     beta=0.70
     CG style diagonalization
     ethr =  1.86E-09,  avg # of iterations =  3.2

     total cpu time spent up to now is       52.7 secs

     total energy              =    -188.82601737 Ry
     Harris-Foulkes estimate   =    -188.82601737 Ry
     estimated scf accuracy    <       0.00000011 Ry

     iteration # 16     ecut=    60.00 Ry     beta=0.70
     CG style diagonalization
     ethr =  7.05E-10,  avg # of iterations =  3.6

     total cpu time spent up to now is       53.8 secs

     total energy              =    -188.82601739 Ry
     Harris-Foulkes estimate   =    -188.82601740 Ry
     estimated scf accuracy    <       0.00000011 Ry

     iteration # 17     ecut=    60.00 Ry     beta=0.70
     CG style diagonalization
     ethr =  7.05E-10,  avg # of iterations =  3.3

     total cpu time spent up to now is       54.5 secs

     total energy              =    -188.82601736 Ry
     Harris-Foulkes estimate   =    -188.82601740 Ry
     estimated scf accuracy    <       0.00000010 Ry

     iteration # 18     ecut=    60.00 Ry     beta=0.70
     CG style diagonalization
     ethr =  5.95E-10,  avg # of iterations =  3.7

     total cpu time spent up to now is       55.4 secs

     total energy              =    -188.82601739 Ry
     Harris-Foulkes estimate   =    -188.82601739 Ry
     estimated scf accuracy    <       0.00000002 Ry

     iteration # 19     ecut=    60.00 Ry     beta=0.70
     CG style diagonalization
     ethr =  1.01E-10,  avg # of iterations =  5.6

     total cpu time spent up to now is       56.4 secs

     total energy              =    -188.82601741 Ry
     Harris-Foulkes estimate   =    -188.82601741 Ry
     estimated scf accuracy    <       0.00000003 Ry

     iteration # 20     ecut=    60.00 Ry     beta=0.70
     CG style diagonalization
     ethr =  1.01E-10,  avg # of iterations =  3.7

     total cpu time spent up to now is       57.0 secs

     total energy              =    -188.82601742 Ry
     Harris-Foulkes estimate   =    -188.82601742 Ry
     estimated scf accuracy    <       0.00000003 Ry

     iteration # 21     ecut=    60.00 Ry     beta=0.70
     CG style diagonalization
     ethr =  1.01E-10,  avg # of iterations =  3.3

     total cpu time spent up to now is       57.6 secs

     total energy              =    -188.82601743 Ry
     Harris-Foulkes estimate   =    -188.82601742 Ry
     estimated scf accuracy    <       0.00000003 Ry

     iteration # 22     ecut=    60.00 Ry     beta=0.70
     CG style diagonalization
     ethr =  1.01E-10,  avg # of iterations =  3.1

     total cpu time spent up to now is       58.1 secs

     total energy              =    -188.82601742 Ry
     Harris-Foulkes estimate   =    -188.82601743 Ry
     estimated scf accuracy    <       0.00000004 Ry

     iteration # 23     ecut=    60.00 Ry     beta=0.70
     CG style diagonalization
     ethr =  1.01E-10,  avg # of iterations =  3.1

     total cpu time spent up to now is       58.7 secs

     total energy              =    -188.82601742 Ry
     Harris-Foulkes estimate   =    -188.82601743 Ry
     estimated scf accuracy    <       0.00000004 Ry

     iteration # 24     ecut=    60.00 Ry     beta=0.70
     CG style diagonalization
     ethr =  1.01E-10,  avg # of iterations =  3.0

     total cpu time spent up to now is       59.3 secs

     total energy              =    -188.82601744 Ry
     Harris-Foulkes estimate   =    -188.82601742 Ry
     estimated scf accuracy    <       0.00000003 Ry

     iteration # 25     ecut=    60.00 Ry     beta=0.70
     CG style diagonalization
     ethr =  1.01E-10,  avg # of iterations =  3.5

     total cpu time spent up to now is       60.1 secs

     total energy              =    -188.82601748 Ry
     Harris-Foulkes estimate   =    -188.82601745 Ry
     estimated scf accuracy    <       0.00000007 Ry

     iteration # 26     ecut=    60.00 Ry     beta=0.70
     CG style diagonalization
     ethr =  1.01E-10,  avg # of iterations =  4.9

     total cpu time spent up to now is       60.9 secs

     total energy              =    -188.82601746 Ry
     Harris-Foulkes estimate   =    -188.82601748 Ry
     estimated scf accuracy    <       0.00000016 Ry

     iteration # 27     ecut=    60.00 Ry     beta=0.70
     CG style diagonalization
     ethr =  1.01E-10,  avg # of iterations =  3.2

     total cpu time spent up to now is       61.5 secs

     total energy              =    -188.82601736 Ry
     Harris-Foulkes estimate   =    -188.82601747 Ry
     estimated scf accuracy    <       0.00000013 Ry

     iteration # 28     ecut=    60.00 Ry     beta=0.70
     CG style diagonalization
     ethr =  1.01E-10,  avg # of iterations =  3.9

     total cpu time spent up to now is       62.2 secs

     total energy              =    -188.82601740 Ry
     Harris-Foulkes estimate   =    -188.82601741 Ry
     estimated scf accuracy    <       0.00000002 Ry

     iteration # 29     ecut=    60.00 Ry     beta=0.70
     CG style diagonalization
     ethr =  1.01E-10,  avg # of iterations =  4.5

     total cpu time spent up to now is       63.0 secs

     total energy              =    -188.82601741 Ry
     Harris-Foulkes estimate   =    -188.82601741 Ry
     estimated scf accuracy    <          2.2E-09 Ry

     iteration # 30     ecut=    60.00 Ry     beta=0.70
     CG style diagonalization
     ethr =  1.35E-11,  avg # of iterations =  4.7

     total cpu time spent up to now is       64.4 secs

     total energy              =    -188.82601741 Ry
     Harris-Foulkes estimate   =    -188.82601742 Ry
     estimated scf accuracy    <       0.00000001 Ry

     iteration # 31     ecut=    60.00 Ry     beta=0.70
     CG style diagonalization
     ethr =  1.35E-11,  avg # of iterations =  4.4

     total cpu time spent up to now is       65.2 secs

     total energy              =    -188.82601741 Ry
     Harris-Foulkes estimate   =    -188.82601741 Ry
     estimated scf accuracy    <          2.6E-09 Ry

     iteration # 32     ecut=    60.00 Ry     beta=0.70
     CG style diagonalization
     ethr =  1.35E-11,  avg # of iterations =  3.6

     total cpu time spent up to now is       65.8 secs

     total energy              =    -188.82601741 Ry
     Harris-Foulkes estimate   =    -188.82601741 Ry
     estimated scf accuracy    <          7.2E-10 Ry

     iteration # 33     ecut=    60.00 Ry     beta=0.70
     CG style diagonalization
     ethr =  4.48E-12,  avg # of iterations =  4.6

     total cpu time spent up to now is       66.6 secs

     End of self-consistent calculation

          k = 0.0000 0.0000 0.0000 (  1969 PWs)   bands (ev):

   -47.0499 -18.9507 -18.9458 -18.9435 -10.6385   2.4016   2.4743   2.5679

          k = 0.0000-0.0001 0.1636 (  1965 PWs)   bands (ev):

   -47.0493 -18.9621 -18.9460 -18.9437 -10.5346   1.5859   2.5153   2.5732

          k = 0.0000-0.0001 0.3272 (  1975 PWs)   bands (ev):

   -47.0482 -18.9900 -18.9439 -18.9412 -10.3127   0.2718   2.6410   2.7009

          k =-0.0001 0.0002-0.4908 (  1980 PWs)   bands (ev):

   -47.0476 -19.0041 -18.9427 -18.9399 -10.1935  -0.2756   2.7073   2.7688

          k = 0.0000 0.1961-0.0007 (  1970 PWs)   bands (ev):

   -47.0491 -18.9659 -18.9487 -18.9418 -10.4939   1.2989   2.4891   2.6517

          k = 0.0000 0.1960 0.1629 (  1963 PWs)   bands (ev):

   -47.0485 -18.9648 -18.9584 -18.9433 -10.3993   1.3650   1.8067   2.6385

          k = 0.0000 0.1960 0.3265 (  1968 PWs)   bands (ev):

   -47.0474 -18.9862 -18.9594 -18.9414 -10.1971   0.4756   1.6995   2.7661

          k =-0.0001 0.1963-0.4915 (  1970 PWs)   bands (ev):

   -47.0468 -18.9994 -18.9576 -18.9402 -10.0884  -0.0412   1.8193   2.8352

          k = 0.0000 0.1962-0.3279 (  1967 PWs)   bands (ev):

   -47.0474 -18.9862 -18.9597 -18.9413 -10.1961   0.4707   1.6940   2.7671

          k = 0.0000 0.1961-0.1643 (  1966 PWs)   bands (ev):

   -47.0485 -18.9643 -18.9592 -18.9431 -10.3984   1.3559   1.8046   2.6398

          k = 0.0000 0.3922-0.0014 (  1972 PWs)   bands (ev):

   -47.0478 -18.9976 -18.9460 -18.9387 -10.2401  -0.0773   2.6326   2.8051

          k = 0.0000 0.3921 0.1622 (  1976 PWs)   bands (ev):

   -47.0473 -18.9944 -18.9555 -18.9403 -10.1617   0.0838   2.0090   2.7931

          k = 0.0000 0.3921 0.3258 (  1970 PWs)   bands (ev):

   -47.0462 -18.9882 -18.9792 -18.9387  -9.9951   0.4358   0.8952   2.9284

          k =-0.0001 0.3923-0.4922 (  1972 PWs)   bands (ev):

   -47.0456 -18.9918 -18.9846 -18.9377  -9.9062   0.3965   0.6538   3.0022

          k =-0.0001 0.3923-0.3286 (  1967 PWs)   bands (ev):

   -47.0462 -18.9880 -18.9796 -18.9387  -9.9944   0.4347   0.8897   2.9292

          k = 0.0000 0.3922-0.1650 (  1979 PWs)   bands (ev):

   -47.0473 -18.9944 -18.9557 -18.9402 -10.1611   0.0810   2.0054   2.7935

          k = 0.2449-0.2405 0.0139 (  1967 PWs)   bands (ev):

   -47.0476 -18.9742 -18.9665 -18.9417 -10.2453   1.0178   1.3327   2.7443

          k = 0.2450-0.2406 0.1775 (  1971 PWs)   bands (ev):

   -47.0471 -18.9719 -18.9653 -18.9543 -10.1546   1.1101   1.4117   2.0211

          k = 0.2450-0.2406 0.3411 (  1963 PWs)   bands (ev):

   -47.0460 -18.9806 -18.9670 -18.9610  -9.9738   0.7913   1.4792   1.6054

          k = 0.2449-0.2404-0.4769 (  1970 PWs)   bands (ev):

   -47.0454 -18.9927 -18.9643 -18.9595  -9.8837   0.3548   1.6207   1.7215

          k = 0.2449-0.2404-0.3133 (  1971 PWs)   bands (ev):

   -47.0460 -18.9817 -18.9650 -18.9607  -9.9858   0.8524   1.4951   1.6343

          k = 0.2449-0.2405-0.1497 (  1961 PWs)   bands (ev):

   -47.0471 -18.9731 -18.9650 -18.9522 -10.1659   1.1499   1.4377   2.0666

          k = 0.2449-0.0444 0.0132 (  1964 PWs)   bands (ev):

   -47.0487 -18.9757 -18.9444 -18.9440 -10.4192   0.8976   2.5238   2.6160

          k = 0.2450-0.0445 0.1768 (  1979 PWs)   bands (ev):

   -47.0481 -18.9738 -18.9579 -18.9432 -10.3201   0.9557   1.8312   2.5955

          k = 0.2450-0.0445 0.3404 (  1963 PWs)   bands (ev):

   -47.0470 -18.9848 -18.9684 -18.9407 -10.1272   0.5394   1.3169   2.7394

          k = 0.2449-0.0443-0.4776 (  1974 PWs)   bands (ev):

   -47.0465 -18.9976 -18.9653 -18.9395 -10.0337   0.0843   1.4832   2.8159

          k = 0.2449-0.0443-0.3140 (  1968 PWs)   bands (ev):

   -47.0470 -18.9857 -18.9655 -18.9408 -10.1454   0.6131   1.3880   2.7405

          k = 0.2449-0.0444-0.1504 (  1964 PWs)   bands (ev):

   -47.0482 -18.9745 -18.9551 -18.9433 -10.3372   1.0555   1.8804   2.5958

          k = 0.2449 0.1517 0.0124 (  1975 PWs)   bands (ev):

   -47.0483 -18.9742 -18.9544 -18.9431 -10.3496   0.9568   1.9532   2.6639

          k = 0.2450 0.1516 0.1760 (  1965 PWs)   bands (ev):

   -47.0477 -18.9724 -18.9570 -18.9522 -10.2551   1.0205   1.8843   2.0733

          k = 0.2450 0.1515 0.3396 (  1971 PWs)   bands (ev):

   -47.0466 -18.9831 -18.9670 -18.9496 -10.0687   0.6438   1.3731   2.2401

          k = 0.2449 0.1518-0.4784 (  1975 PWs)   bands (ev):

   -47.0461 -18.9955 -18.9641 -18.9482  -9.9768   0.1932   1.5356   2.3316

          k = 0.2449 0.1518-0.3148 (  1970 PWs)   bands (ev):

   -47.0466 -18.9839 -18.9643 -18.9499 -10.0832   0.7064   1.4393   2.2281

          k = 0.2449 0.1517-0.1512 (  1958 PWs)   bands (ev):

   -47.0477 -18.9730 -18.9544 -18.9527 -10.2688   1.1122   1.8980   2.0877

          k = 0.2449-0.6327 0.0153 (  1971 PWs)   bands (ev):

   -47.0470 -18.9856 -18.9686 -18.9401 -10.1227   0.4616   1.3460   2.8278

          k = 0.2450-0.6328 0.1789 (  1969 PWs)   bands (ev):

   -47.0464 -18.9828 -18.9674 -18.9521 -10.0402   0.6091   1.4055   2.1412

          k = 0.2450-0.6328 0.3425 (  1974 PWs)   bands (ev):

   -47.0453 -18.9794 -18.9762 -18.9622  -9.8710   0.8711   1.0465   1.6463

          k = 0.2449-0.6325-0.4755 (  1969 PWs)   bands (ev):

   -47.0448 -18.9893 -18.9758 -18.9602  -9.7841   0.5576   1.0584   1.7813

          k = 0.2449-0.6326-0.3119 (  1969 PWs)   bands (ev):

   -47.0453 -18.9791 -18.9779 -18.9603  -9.8766   0.8460   1.0831   1.6970

          k = 0.2449-0.6327-0.1483 (  1972 PWs)   bands (ev):

   -47.0464 -18.9835 -18.9679 -18.9505 -10.0454   0.5781   1.4735   2.1726

          k = 0.2449-0.4366 0.0146 (  1973 PWs)   bands (ev):

   -47.0466 -18.9950 -18.9665 -18.9392 -10.0519   0.1179   1.4625   2.8810

          k = 0.2450-0.4367 0.1782 (  1984 PWs)   bands (ev):

   -47.0460 -18.9920 -18.9655 -18.9509  -9.9722   0.2724   1.5206   2.2114

          k = 0.2450-0.4367 0.3418 (  1969 PWs)   bands (ev):

   -47.0449 -18.9866 -18.9762 -18.9604  -9.8071   0.5801   1.1129   1.7446

          k = 0.2449-0.4365-0.4762 (  1967 PWs)   bands (ev):

   -47.0444 -18.9878 -18.9840 -18.9588  -9.7216   0.6733   0.7359   1.8677

          k = 0.2449-0.4365-0.3126 (  1971 PWs)   bands (ev):

   -47.0449 -18.9876 -18.9765 -18.9589  -9.8110   0.5433   1.1622   1.7865

          k = 0.2449-0.4366-0.1490 (  1981 PWs)   bands (ev):

   -47.0460 -18.9928 -18.9660 -18.9494  -9.9756   0.2405   1.5807   2.2454

          k =-0.4899 0.4811-0.0277 (  1976 PWs)   bands (ev):

   -47.0454 -18.9920 -18.9876 -18.9372  -9.8746   0.4533   0.5080   3.0332

          k =-0.4899 0.4810 0.1359 (  1969 PWs)   bands (ev):

   -47.0449 -18.9902 -18.9857 -18.9481  -9.7954   0.5586   0.6100   2.4139

          k =-0.4898 0.4809 0.2995 (  1962 PWs)   bands (ev):

   -47.0438 -18.9874 -18.9822 -18.9688  -9.6282   0.7867   0.8304   1.3856

          k =-0.4899 0.4812-0.5185 (  1972 PWs)   bands (ev):

   -47.0432 -18.9889 -18.9811 -18.9755  -9.5397   0.8793   0.9304   0.9897

          k =-0.4899 0.6772-0.0285 (  1973 PWs)   bands (ev):

   -47.0462 -18.9951 -18.9725 -18.9388  -9.9910   0.1931   1.1407   2.9266

          k =-0.4899 0.6771 0.1351 (  1978 PWs)   bands (ev):

   -47.0456 -18.9928 -18.9708 -18.9501  -9.9128   0.3256   1.2326   2.2822

          k =-0.4898 0.6770 0.2987 (  1975 PWs)   bands (ev):

   -47.0445 -18.9894 -18.9717 -18.9673  -9.7484   0.6117   1.2152   1.4524

          k =-0.4899 0.6773-0.5193 (  1981 PWs)   bands (ev):

   -47.0440 -18.9913 -18.9787 -18.9657  -9.6617   0.7073   0.8307   1.5594

          k =-0.4899 0.6773-0.3557 (  1966 PWs)   bands (ev):

   -47.0445 -18.9896 -18.9715 -18.9672  -9.7494   0.6080   1.2208   1.4589

          k =-0.4899 0.6772-0.1921 (  1970 PWs)   bands (ev):

   -47.0456 -18.9929 -18.9707 -18.9500  -9.9137   0.3231   1.2385   2.2878

          k =-0.4899 0.8732-0.0292 (  1974 PWs)   bands (ev):

   -47.0474 -19.0026 -18.9454 -18.9414 -10.1665  -0.2104   2.4595   2.7638

          k =-0.4899 0.8732 0.1344 (  1969 PWs)   bands (ev):

   -47.0469 -18.9995 -18.9533 -18.9442 -10.0906  -0.0460   2.0775   2.5397

          k =-0.4898 0.8731 0.2980 (  1978 PWs)   bands (ev):

   -47.0458 -18.9944 -18.9758 -18.9418  -9.9307   0.3171   0.9908   2.6979

          k =-0.4900 0.8734-0.5200 (  1974 PWs)   bands (ev):

   -47.0452 -18.9957 -18.9832 -18.9406  -9.8461   0.4491   0.6001   2.7845

          k =-0.4899 0.8734-0.3564 (  1980 PWs)   bands (ev):

   -47.0458 -18.9945 -18.9757 -18.9418  -9.9313   0.3154   0.9944   2.7017

          k =-0.4899 0.8733-0.1928 (  1966 PWs)   bands (ev):

   -47.0469 -18.9995 -18.9533 -18.9441 -10.0911  -0.0470   2.0828   2.5416

!    total energy              =    -188.82601741 Ry
     Harris-Foulkes estimate   =    -188.82601741 Ry
     estimated scf accuracy    <          7.6E-11 Ry

     total all-electron energy =     -1248.113010 Ry

     The total energy is the sum of the following terms:

     one-electron contribution =     -73.90545988 Ry
     hartree contribution      =      39.33581635 Ry
     xc contribution           =     -24.70262491 Ry
     ewald contribution        =     -72.93294097 Ry
     one-center paw contrib.   =     -56.62080801 Ry

     convergence has been achieved in  33 iterations

     Forces acting on atoms (Ry/au):

     atom    1 type  1   force =     0.00201248   -0.00029909   -0.00110663
     atom    2 type  2   force =    -0.00201248    0.00029909    0.00110663

     Total force =     0.003275     Total SCF correction =     0.000003


     entering subroutine stress ...

          total   stress  (Ry/bohr**3)                   (kbar)     P=   29.58
   0.00020556  -0.00000192  -0.00000718         30.24     -0.28     -1.06
  -0.00000192   0.00019817   0.00000499         -0.28     29.15      0.73
  -0.00000718   0.00000499   0.00019959         -1.06      0.73     29.36


     number of scf cycles    =   3
     number of bfgs steps    =   2

     enthalpy old            =    -188.8239681926 Ry
     enthalpy new            =    -188.8260174104 Ry

     CASE: enthalpy_new < enthalpy_old

     new trust radius        =       0.0520207590 bohr
     new conv_thr            =       0.0000000002 Ry

     new unit-cell volume =    279.34110 a.u.^3 (    41.39408 Ang^3 )

CELL_PARAMETERS (alat=  6.31168528)
   1.036941596  -0.000098779  -0.000603243
   1.017414784   1.035534265   0.000114571
  -0.055363685   0.004134639   1.034556274

ATOMIC_POSITIONS (crystal)
Na       0.458565921   0.323030003   0.225347704
Cl       0.490509390   0.817118619   0.705110625



     Writing output data file NaCl_pegs+pwscf.save
     NEW-OLD atomic charge density approx. for the potential
     NEW k-points:
        k(    1) = (   0.0000000   0.0000000   0.0000000), wk =   0.0166667
        k(    2) = (   0.0000937  -0.0001099   0.1611051), wk =   0.0333333
        k(    3) = (   0.0001874  -0.0002198   0.3222102), wk =   0.0333333
        k(    4) = (  -0.0002811   0.0003297  -0.4833154), wk =   0.0166667
        k(    5) = (   0.0000179   0.1931195  -0.0007708), wk =   0.0333333
        k(    6) = (   0.0001117   0.1930096   0.1603343), wk =   0.0333333
        k(    7) = (   0.0002054   0.1928997   0.3214394), wk =   0.0333333
        k(    8) = (  -0.0002632   0.1934492  -0.4840862), wk =   0.0333333
        k(    9) = (  -0.0001695   0.1933393  -0.3229811), wk =   0.0333333
[...]
     CG style diagonalization
     ethr =  2.39E-10,  avg # of iterations =  3.7

     total cpu time spent up to now is      523.4 secs

     total energy              =    -188.83518525 Ry
     Harris-Foulkes estimate   =    -188.83518524 Ry
     estimated scf accuracy    <       0.00000003 Ry

     iteration # 21     ecut=    60.00 Ry     beta=0.70
     CG style diagonalization
     ethr =  1.85E-10,  avg # of iterations =  3.8

     total cpu time spent up to now is      524.1 secs

     total energy              =    -188.83518522 Ry
     Harris-Foulkes estimate   =    -188.83518526 Ry
     estimated scf accuracy    <       0.00000007 Ry

     iteration # 22     ecut=    60.00 Ry     beta=0.70
     CG style diagonalization
     ethr =  1.85E-10,  avg # of iterations =  4.2

     total cpu time spent up to now is      524.8 secs

     total energy              =    -188.83518523 Ry
     Harris-Foulkes estimate   =    -188.83518523 Ry
     estimated scf accuracy    <          2.2E-09 Ry

     iteration # 23     ecut=    60.00 Ry     beta=0.70
     CG style diagonalization
     c_bands:  1 eigenvalues not converged
     ethr =  1.37E-11,  avg # of iterations =  7.0

     total cpu time spent up to now is      525.9 secs

     total energy              =    -188.83518524 Ry
     Harris-Foulkes estimate   =    -188.83518524 Ry
     estimated scf accuracy    <          8.4E-10 Ry

     iteration # 24     ecut=    60.00 Ry     beta=0.70
     CG style diagonalization
     c_bands:  1 eigenvalues not converged
     c_bands:  1 eigenvalues not converged
     c_bands:  1 eigenvalues not converged
     c_bands:  1 eigenvalues not converged
     ethr =  5.25E-12,  avg # of iterations =  6.6

     total cpu time spent up to now is      527.4 secs

     total energy              =    -188.83518524 Ry
     Harris-Foulkes estimate   =    -188.83518525 Ry
     estimated scf accuracy    <          8.3E-10 Ry

     iteration # 25     ecut=    60.00 Ry     beta=0.70
     CG style diagonalization
     ethr =  5.21E-12,  avg # of iterations =  5.0

     total cpu time spent up to now is      528.3 secs

     End of self-consistent calculation

          k = 0.0000 0.0000 0.0000 (  1969 PWs)   bands (ev):

   -46.5072 -18.4305 -18.4163 -18.4111 -10.7309   2.0707   2.2032   2.7616

          k = 0.0272-0.0225 0.1718 (  1965 PWs)   bands (ev):

   -46.5067 -18.4386 -18.4245 -18.4108 -10.6139   1.5064   2.0582   2.5736

          k = 0.0544-0.0451 0.3436 (  1975 PWs)   bands (ev):

   -46.5058 -18.4654 -18.4299 -18.4100 -10.3658   0.3459   1.9722   2.3957

          k =-0.0816 0.0676-0.5154 (  1980 PWs)   bands (ev):

   -46.5054 -18.4795 -18.4316 -18.4096 -10.2335  -0.1585   1.9302   2.3259

          k = 0.0252 0.1982-0.0285 (  1970 PWs)   bands (ev):

   -46.5067 -18.4379 -18.4251 -18.4148 -10.5869   1.1417   2.1657   2.6407

          k = 0.0524 0.1756 0.1434 (  1963 PWs)   bands (ev):

   -46.5063 -18.4423 -18.4216 -18.4201 -10.5336   1.3493   1.8029   2.4505

          k = 0.0796 0.1531 0.3152 (  1968 PWs)   bands (ev):

   -46.5055 -18.4603 -18.4300 -18.4169 -10.3390   0.6307   1.6269   2.2561

          k =-0.0564 0.2658-0.5439 (  1970 PWs)   bands (ev):

   -46.5050 -18.4727 -18.4341 -18.4174 -10.1926   0.0915   1.4666   2.1804

          k =-0.0292 0.2433-0.3721 (  1967 PWs)   bands (ev):

   -46.5053 -18.4626 -18.4365 -18.4192 -10.2535   0.3566   1.3055   2.2562

          k =-0.0020 0.2207-0.2003 (  1966 PWs)   bands (ev):

   -46.5062 -18.4395 -18.4378 -18.4178 -10.4526   0.8692   1.6825   2.4385

          k = 0.0504 0.3963-0.0569 (  1972 PWs)   bands (ev):

   -46.5058 -18.4670 -18.4295 -18.4131 -10.3379  -0.0463   2.1067   2.5260

          k = 0.0776 0.3738 0.1149 (  1976 PWs)   bands (ev):

   -46.5055 -18.4616 -18.4312 -18.4185 -10.3133   0.2378   1.7549   2.3681

          k = 0.1048 0.3512 0.2867 (  1970 PWs)   bands (ev):

   -46.5048 -18.4637 -18.4330 -18.4246 -10.2066   0.4263   1.2128   2.1830

          k =-0.0312 0.4640-0.5723 (  1972 PWs)   bands (ev):

   -46.5044 -18.4690 -18.4365 -18.4242 -10.1231   0.2763   1.0431   2.1111

          k =-0.0040 0.4414-0.4005 (  1967 PWs)   bands (ev):

   -46.5047 -18.4614 -18.4435 -18.4231 -10.1520   0.4431   0.7989   2.1824

          k = 0.0232 0.4189-0.2287 (  1979 PWs)   bands (ev):

   -46.5054 -18.4635 -18.4365 -18.4179 -10.2599   0.0448   1.6169   2.3480

          k = 0.2228-0.2146 0.0890 (  1967 PWs)   bands (ev):

   -46.5057 -18.4532 -18.4261 -18.4229 -10.3890   0.9573   1.5144   2.3076

          k = 0.2500-0.2371 0.2609 (  1971 PWs)   bands (ev):

   -46.5051 -18.4518 -18.4440 -18.4234 -10.2439   0.6475   1.4132   1.7685

          k = 0.2772-0.2597 0.4327 (  1963 PWs)   bands (ev):

   -46.5045 -18.4651 -18.4456 -18.4204 -10.1221   0.4314   1.3038   1.5002

          k = 0.1412-0.1469-0.4264 (  1970 PWs)   bands (ev):

   -46.5045 -18.4742 -18.4347 -18.4173 -10.1522   0.4554   1.4450   1.6705

          k = 0.1684-0.1695-0.2546 (  1971 PWs)   bands (ev):

   -46.5051 -18.4683 -18.4240 -18.4170 -10.3032   0.9622   1.6670   1.8285

          k = 0.1956-0.1920-0.0828 (  1961 PWs)   bands (ev):

   -46.5057 -18.4579 -18.4201 -18.4192 -10.4182   1.2590   1.7063   2.0823

          k = 0.2480-0.0164 0.0606 (  1964 PWs)   bands (ev):

   -46.5063 -18.4514 -18.4269 -18.4104 -10.4990   0.9558   2.0109   2.4772

          k = 0.2752-0.0390 0.2324 (  1979 PWs)   bands (ev):

   -46.5057 -18.4552 -18.4425 -18.4110 -10.3412   0.6009   1.5841   2.2302

          k = 0.3024-0.0615 0.4042 (  1963 PWs)   bands (ev):

   -46.5050 -18.4642 -18.4495 -18.4115 -10.1860   0.3233   1.1512   2.1019

          k = 0.1664 0.0512-0.4548 (  1974 PWs)   bands (ev):

   -46.5049 -18.4712 -18.4390 -18.4119 -10.1959   0.2645   1.3698   2.0900

          k = 0.1936 0.0287-0.2830 (  1968 PWs)   bands (ev):

   -46.5055 -18.4620 -18.4280 -18.4122 -10.3618   0.8048   1.6873   2.1507

          k = 0.2208 0.0061-0.1112 (  1964 PWs)   bands (ev):

   -46.5061 -18.4509 -18.4230 -18.4115 -10.5095   1.2886   1.9355   2.2636

          k = 0.2732 0.1817 0.0321 (  1975 PWs)   bands (ev):

   -46.5059 -18.4511 -18.4305 -18.4185 -10.4053   0.7450   1.5965   2.3779

          k = 0.3004 0.1592 0.2040 (  1965 PWs)   bands (ev):

   -46.5055 -18.4565 -18.4405 -18.4157 -10.3003   0.5040   1.7102   1.9241

          k = 0.3276 0.1367 0.3758 (  1971 PWs)   bands (ev):

   -46.5048 -18.4591 -18.4517 -18.4162 -10.1643   0.5132   1.0693   1.8123

          k = 0.1916 0.2494-0.4833 (  1975 PWs)   bands (ev):

   -46.5046 -18.4673 -18.4410 -18.4205 -10.1358   0.4378   1.1373   1.6810

          k = 0.2188 0.2268-0.3115 (  1970 PWs)   bands (ev):

   -46.5051 -18.4604 -18.4318 -18.4241 -10.2465   0.6141   1.5025   1.6939

          k = 0.2460 0.2043-0.1397 (  1958 PWs)   bands (ev):

   -46.5057 -18.4496 -18.4295 -18.4229 -10.3797   0.8521   1.6253   2.0260

          k = 0.1724-0.6109 0.1460 (  1971 PWs)   bands (ev):

   -46.5051 -18.4554 -18.4426 -18.4224 -10.2296   0.3593   1.1380   2.2579

          k = 0.1996-0.6335 0.3178 (  1969 PWs)   bands (ev):

   -46.5048 -18.4556 -18.4425 -18.4276 -10.1747   0.6026   0.9610   1.8692

          k = 0.2268-0.6560 0.4896 (  1974 PWs)   bands (ev):

   -46.5042 -18.4653 -18.4424 -18.4263 -10.0851   0.6249   1.0865   1.3476

          k = 0.0908-0.5433-0.3695 (  1969 PWs)   bands (ev):

   -46.5041 -18.4730 -18.4353 -18.4288 -10.0518   0.5855   1.0463   1.3144

          k = 0.1180-0.5658-0.1977 (  1969 PWs)   bands (ev):

   -46.5044 -18.4688 -18.4397 -18.4234 -10.1098   0.5087   1.0213   1.6655

          k = 0.1452-0.5884-0.0259 (  1972 PWs)   bands (ev):

   -46.5050 -18.4615 -18.4418 -18.4203 -10.1979   0.2589   1.4422   1.9030

          k = 0.1976-0.4127 0.1175 (  1973 PWs)   bands (ev):

   -46.5050 -18.4638 -18.4347 -18.4232 -10.2184   0.2514   1.3661   2.2322

          k = 0.2248-0.4353 0.2893 (  1984 PWs)   bands (ev):

   -46.5045 -18.4599 -18.4362 -18.4336 -10.1380   0.4602   1.0590   1.7731

          k = 0.2520-0.4578 0.4611 (  1969 PWs)   bands (ev):

   -46.5040 -18.4693 -18.4391 -18.4281 -10.0581   0.6381   0.9029   1.4328

          k = 0.1160-0.3451-0.3979 (  1967 PWs)   bands (ev):

   -46.5040 -18.4793 -18.4315 -18.4247 -10.0618   0.3972   1.2685   1.5379

          k = 0.1432-0.3677-0.2261 (  1971 PWs)   bands (ev):

   -46.5044 -18.4770 -18.4301 -18.4205 -10.1461   0.4679   1.3848   1.7950

          k = 0.1704-0.3902-0.0543 (  1981 PWs)   bands (ev):

   -46.5049 -18.4697 -18.4332 -18.4179 -10.2228   0.3361   1.6229   1.9980

          k =-0.4456 0.4292-0.1781 (  1976 PWs)   bands (ev):

   -46.5042 -18.4704 -18.4354 -18.4271 -10.0970   0.2568   1.0219   2.0782

          k =-0.4184 0.4066-0.0063 (  1969 PWs)   bands (ev):

   -46.5040 -18.4742 -18.4333 -18.4281 -10.0692   0.3612   1.1178   1.7039

          k =-0.3912 0.3841 0.1655 (  1962 PWs)   bands (ev):

   -46.5037 -18.4864 -18.4278 -18.4265 -10.0119   0.2993   1.3128   1.4543

          k =-0.5272 0.4968-0.6935 (  1972 PWs)   bands (ev):

   -46.5036 -18.4938 -18.4252 -18.4242  -9.9824   0.1037   1.3914   1.6150

          k =-0.4204 0.6273-0.2065 (  1973 PWs)   bands (ev):

   -46.5046 -18.4700 -18.4347 -18.4238 -10.1472   0.2688   1.1179   2.1234

          k =-0.3932 0.6048-0.0347 (  1978 PWs)   bands (ev):

   -46.5043 -18.4670 -18.4373 -18.4289 -10.0977   0.5151   0.9811   1.6178

          k =-0.3660 0.5822 0.1371 (  1975 PWs)   bands (ev):

   -46.5040 -18.4767 -18.4328 -18.4279 -10.0428   0.5776   1.0335   1.3340

          k =-0.5020 0.6950-0.7220 (  1981 PWs)   bands (ev):

   -46.5039 -18.4854 -18.4280 -18.4236 -10.0389   0.3145   1.3150   1.5259

          k =-0.4748 0.6724-0.5502 (  1966 PWs)   bands (ev):

   -46.5041 -18.4814 -18.4307 -18.4202 -10.0911   0.4503   1.3396   1.5843

          k =-0.4476 0.6499-0.3784 (  1970 PWs)   bands (ev):

   -46.5045 -18.4739 -18.4339 -18.4202 -10.1445   0.3635   1.3142   1.8663

          k =-0.3952 0.8255-0.2350 (  1974 PWs)   bands (ev):

   -46.5052 -18.4780 -18.4313 -18.4118 -10.2247  -0.1002   1.8262   2.2739

          k =-0.3680 0.8029-0.0632 (  1969 PWs)   bands (ev):

   -46.5050 -18.4709 -18.4376 -18.4157 -10.1877   0.1613   1.4238   2.0193

          k =-0.3408 0.7804 0.1086 (  1978 PWs)   bands (ev):

   -46.5045 -18.4709 -18.4381 -18.4179 -10.1384   0.3685   1.1479   1.8481

          k =-0.4768 0.8931-0.7504 (  1974 PWs)   bands (ev):

   -46.5043 -18.4769 -18.4331 -18.4166 -10.1269   0.2084   1.3890   1.8717

          k =-0.4496 0.8706-0.5786 (  1980 PWs)   bands (ev):

   -46.5046 -18.4737 -18.4364 -18.4136 -10.1673   0.3590   1.2784   1.9773

          k =-0.4224 0.8480-0.4068 (  1966 PWs)   bands (ev):

   -46.5051 -18.4750 -18.4349 -18.4110 -10.2157   0.0875   1.7547   2.0514

!    total energy              =    -188.83518525 Ry
     Harris-Foulkes estimate   =    -188.83518525 Ry
     estimated scf accuracy    <          5.7E-11 Ry

     total all-electron energy =     -1248.122178 Ry

     The total energy is the sum of the following terms:

     one-electron contribution =     -75.33070610 Ry
     hartree contribution      =      40.18573479 Ry
     xc contribution           =     -24.74228377 Ry
     ewald contribution        =     -72.31930842 Ry
     one-center paw contrib.   =     -56.62862175 Ry

     convergence has been achieved in  25 iterations

     Forces acting on atoms (Ry/au):

     atom    1 type  1   force =     0.00805610   -0.00080911    0.00230822
     atom    2 type  2   force =    -0.00805610    0.00080911   -0.00230822

     Total force =     0.011907     Total SCF correction =     0.000007


     entering subroutine stress ...

          total   stress  (Ry/bohr**3)                   (kbar)     P=   63.54
   0.00044385  -0.00016832   0.00004863         65.29    -24.76      7.15
  -0.00016832   0.00042290   0.00007797        -24.76     62.21     11.47
   0.00004863   0.00007797   0.00042901          7.15     11.47     63.11


     number of scf cycles    =  25
     number of bfgs steps    =  24

     enthalpy old            =    -188.8329939543 Ry
     enthalpy new            =    -188.8351852460 Ry

     CASE: enthalpy_new < enthalpy_old

     new trust radius        =       0.1789983249 bohr
     new conv_thr            =       0.0000000008 Ry

     new unit-cell volume =    264.95839 a.u.^3 (    39.26278 Ang^3 )

CELL_PARAMETERS (alat=  6.31168528)
   1.061004321  -0.208096721  -0.220084374
   0.841522862   0.867503441  -0.006824435
  -0.274519931   0.229314056   1.047309015

ATOMIC_POSITIONS (crystal)
Na       0.461538275   0.314342662   0.217419771
Cl       0.487537036   0.825805960   0.713038558



     Writing output data file NaCl_pegs+pwscf.save
     NEW-OLD atomic charge density approx. for the potential
     NEW k-points:
        k(    1) = (   0.0000000   0.0000000   0.0000000), wk =   0.0166667
        k(    2) = (   0.0304219  -0.0281477   0.1732753), wk =   0.0333333
        k(    3) = (   0.0608437  -0.0562953   0.3465505), wk =   0.0333333
        k(    4) = (  -0.0912656   0.0844430  -0.5198258), wk =   0.0166667
        k(    5) = (   0.0317858   0.1994348  -0.0353357), wk =   0.0333333
        k(    6) = (   0.0622077   0.1712871   0.1379396), wk =   0.0333333
        k(    7) = (   0.0926296   0.1431394   0.3112148), wk =   0.0333333
        k(    8) = (  -0.0594798   0.2838778  -0.5551614), wk =   0.0333333
        k(    9) = (  -0.0290579   0.2557301  -0.3818862), wk =   0.0333333
        k(   10) = (   0.0013640   0.2275824  -0.2086109), wk =   0.0333333
        k(   11) = (   0.0635716   0.3988696  -0.0706713), wk =   0.0333333
        k(   12) = (   0.0939935   0.3707219   0.1026039), wk =   0.0333333
        k(   13) = (   0.1244154   0.3425742   0.2758792), wk =   0.0333333
        k(   14) = (  -0.0276940   0.4833125  -0.5904971), wk =   0.0333333
        k(   15) = (   0.0027279   0.4551649  -0.4172218), wk =   0.0333333
        k(   16) = (   0.0331498   0.4270172  -0.2439466), wk =   0.0333333
        k(   17) = (   0.2159195  -0.2086483   0.1022814), wk =   0.0333333
        k(   18) = (   0.2463413  -0.2367960   0.2755566), wk =   0.0333333
        k(   19) = (   0.2767632  -0.2649437   0.4488319), wk =   0.0333333
        k(   20) = (   0.1246539  -0.1242054  -0.4175444), wk =   0.0333333
        k(   21) = (   0.1550757  -0.1523530  -0.2442691), wk =   0.0333333
        k(   22) = (   0.1854976  -0.1805007  -0.0709939), wk =   0.0333333
        k(   23) = (   0.2477053  -0.0092136   0.0669457), wk =   0.0333333
        k(   24) = (   0.2781272  -0.0373612   0.2402210), wk =   0.0333333
        k(   25) = (   0.3085490  -0.0655089   0.4134962), wk =   0.0333333
        k(   26) = (   0.1564397   0.0752294  -0.4528800), wk =   0.0333333
        k(   27) = (   0.1868616   0.0470818  -0.2796048), wk =   0.0333333
        k(   28) = (   0.2172834   0.0189341  -0.1063295), wk =   0.0333333
        k(   29) = (   0.2794911   0.1902212   0.0316100), wk =   0.0333333
        k(   30) = (   0.3099130   0.1620735   0.2048853), wk =   0.0333333
        k(   31) = (   0.3403349   0.1339259   0.3781605), wk =   0.0333333
        k(   32) = (   0.1882255   0.2746642  -0.4882157), wk =   0.0333333
        k(   33) = (   0.2186474   0.2465165  -0.3149405), wk =   0.0333333
        k(   34) = (   0.2490692   0.2183689  -0.1416652), wk =   0.0333333
        k(   35) = (   0.1523478  -0.6075179   0.1729527), wk =   0.0333333
        k(   36) = (   0.1827697  -0.6356656   0.3462279), wk =   0.0333333
        k(   37) = (   0.2131916  -0.6638132   0.5195032), wk =   0.0333333
        k(   38) = (   0.0610822  -0.5230749  -0.3468731), wk =   0.0333333
        k(   39) = (   0.0915041  -0.5512226  -0.1735978), wk =   0.0333333
        k(   40) = (   0.1219260  -0.5793702  -0.0003226), wk =   0.0333333
        k(   41) = (   0.1841336  -0.4080831   0.1376170), wk =   0.0333333
        k(   42) = (   0.2145555  -0.4362308   0.3108923), wk =   0.0333333
        k(   43) = (   0.2449774  -0.4643785   0.4841675), wk =   0.0333333
        k(   44) = (   0.0928680  -0.3236401  -0.3822087), wk =   0.0333333
        k(   45) = (   0.1232899  -0.3517878  -0.2089335), wk =   0.0333333
        k(   46) = (   0.1537118  -0.3799355  -0.0356582), wk =   0.0333333
        k(   47) = (  -0.4318389   0.4172967  -0.2045627), wk =   0.0166667
        k(   48) = (  -0.4014171   0.3891490  -0.0312875), wk =   0.0333333
        k(   49) = (  -0.3709952   0.3610014   0.1419878), wk =   0.0333333
        k(   50) = (  -0.5231046   0.5017397  -0.7243885), wk =   0.0166667
        k(   51) = (  -0.4000531   0.6167315  -0.2398984), wk =   0.0333333
        k(   52) = (  -0.3696312   0.5885838  -0.0666231), wk =   0.0333333
        k(   53) = (  -0.3392094   0.5604361   0.1066521), wk =   0.0333333
        k(   54) = (  -0.4913187   0.7011745  -0.7597241), wk =   0.0333333
        k(   55) = (  -0.4608969   0.6730268  -0.5864489), wk =   0.0333333
        k(   56) = (  -0.4304750   0.6448791  -0.4131736), wk =   0.0333333
        k(   57) = (  -0.3682673   0.8161663  -0.2752341), wk =   0.0333333
        k(   58) = (  -0.3378454   0.7880186  -0.1019588), wk =   0.0333333
        k(   59) = (  -0.3074236   0.7598709   0.0713164), wk =   0.0333333
        k(   60) = (  -0.4595329   0.9006092  -0.7950598), wk =   0.0333333
        k(   61) = (  -0.4291110   0.8724616  -0.6217846), wk =   0.0333333
        k(   62) = (  -0.3986892   0.8443139  -0.4485093), wk =   0.0333333

 %%%%%%%%%%%%%%%%%%%%%%%%%%%%%%%%%%%%%%%%%%%%%%%%%%%%%%%%%%%%%%%%%%%%%%%%%%%%%%
     Error in routine scale_h (1):

 %%%%%%%%%%%%%%%%%%%%%%%%%%%%%%%%%%%%%%%%%%%%%%%%%%%%%%%%%%%%%%%%%%%%%%%%%%%%%%
     Error in routine scale_h (1):
     Not enough space allocated for radial FFT: try restarting with a larger cell_factor.
 %%%%%%%%%%%%%%%%%%%%%%%%%%%%%%%%%%%%%%%%%%%%%%%%%%%%%%%%%%%%%%%%%%%%%%%%%%%%%%

     stopping ...
     Not enough space allocated for radial FFT: try restarting with a larger cell_factor.
 %%%%%%%%%%%%%%%%%%%%%%%%%%%%%%%%%%%%%%%%%%%%%%%%%%%%%%%%%%%%%%%%%%%%%%%%%%%%%%

     stopping ...

 %%%%%%%%%%%%%%%%%%%%%%%%%%%%%%%%%%%%%%%%%%%%%%%%%%%%%%%%%%%%%%%%%%%%%%%%%%%%%%
     Error in routine scale_h (1):
     Not enough space allocated for radial FFT: try restarting with a larger cell_factor.
 %%%%%%%%%%%%%%%%%%%%%%%%%%%%%%%%%%%%%%%%%%%%%%%%%%%%%%%%%%%%%%%%%%%%%%%%%%%%%%

     stopping ...

 %%%%%%%%%%%%%%%%%%%%%%%%%%%%%%%%%%%%%%%%%%%%%%%%%%%%%%%%%%%%%%%%%%%%%%%%%%%%%%
     Error in routine scale_h (1):
     Not enough space allocated for radial FFT: try restarting with a larger cell_factor.
 %%%%%%%%%%%%%%%%%%%%%%%%%%%%%%%%%%%%%%%%%%%%%%%%%%%%%%%%%%%%%%%%%%%%%%%%%%%%%%

     stopping ...

 %%%%%%%%%%%%%%%%%%%%%%%%%%%%%%%%%%%%%%%%%%%%%%%%%%%%%%%%%%%%%%%%%%%%%%%%%%%%%%
     Error in routine scale_h (1):
     Not enough space allocated for radial FFT: try restarting with a larger cell_factor.
 %%%%%%%%%%%%%%%%%%%%%%%%%%%%%%%%%%%%%%%%%%%%%%%%%%%%%%%%%%%%%%%%%%%%%%%%%%%%%%

     stopping ...

 %%%%%%%%%%%%%%%%%%%%%%%%%%%%%%%%%%%%%%%%%%%%%%%%%%%%%%%%%%%%%%%%%%%%%%%%%%%%%%
     Error in routine scale_h (1):
     Not enough space allocated for radial FFT: try restarting with a larger cell_factor.
 %%%%%%%%%%%%%%%%%%%%%%%%%%%%%%%%%%%%%%%%%%%%%%%%%%%%%%%%%%%%%%%%%%%%%%%%%%%%%%

     stopping ...

 %%%%%%%%%%%%%%%%%%%%%%%%%%%%%%%%%%%%%%%%%%%%%%%%%%%%%%%%%%%%%%%%%%%%%%%%%%%%%%
     Error in routine scale_h (1):
     Not enough space allocated for radial FFT: try restarting with a larger cell_factor.
 %%%%%%%%%%%%%%%%%%%%%%%%%%%%%%%%%%%%%%%%%%%%%%%%%%%%%%%%%%%%%%%%%%%%%%%%%%%%%%

     stopping ...

 %%%%%%%%%%%%%%%%%%%%%%%%%%%%%%%%%%%%%%%%%%%%%%%%%%%%%%%%%%%%%%%%%%%%%%%%%%%%%%
     Error in routine scale_h (1):
     Not enough space allocated for radial FFT: try restarting with a larger cell_factor.
 %%%%%%%%%%%%%%%%%%%%%%%%%%%%%%%%%%%%%%%%%%%%%%%%%%%%%%%%%%%%%%%%%%%%%%%%%%%%%%

     stopping ...
