
     Program PWSCF v.5.0.2 starts on 23Mar2018 at  0: 4:47 

     This program is part of the open-source Quantum ESPRESSO suite
     for quantum simulation of materials; please cite
         "P. Giannozzi et al., J. Phys.:Condens. Matter 21 395502 (2009);
          URL http://www.quantum-espresso.org", 
     in publications or presentations arising from this work. More details at
     http://www.quantum-espresso.org/quote.php

     Parallel version (MPI), running on     8 processors
     R & G space division:  proc/nbgrp/npool/nimage =       8

     Current dimensions of program PWSCF are:
     Max number of different atomic species (ntypx) = 10
     Max number of k-points (npk) =  40000
     Max angular momentum in pseudopotentials (lmaxx) =  3
     Waiting for input...
     Reading input from standard input
               file Na.pbe-spn-kjpaw_psl.0.2.UPF: wavefunction(s)  2P 3P renormalized
               file Cl.pbe-n-kjpaw_psl.0.1.UPF: wavefunction(s)  3S 3P renormalized

     Subspace diagonalization in iterative solution of the eigenvalue problem:
     scalapack distributed-memory algorithm (size of sub-group:  2*  2 procs)

 
     Parallelization info
     --------------------
     sticks:   dense  smooth     PW     G-vecs:    dense   smooth      PW
     Min         120     120     38                 2397     2397     434
     Max         121     121     39                 2399     2399     436
     Sum         961     961    309                19187    19187    3479
 


     bravais-lattice index     =            0
     lattice parameter (alat)  =       7.7758  a.u.
     unit-cell volume          =     305.4113 (a.u.)^3
     number of atoms/cell      =            2
     number of atomic types    =            2
     number of electrons       =        16.00
     number of Kohn-Sham states=            8
     kinetic-energy cutoff     =      60.0000  Ry
     charge density cutoff     =     240.0000  Ry
     convergence threshold     =      1.0E-08
     mixing beta               =       0.7000
     number of iterations used =            8  plain     mixing
     Exchange-correlation      =  SLA  PW   PBX  PBC ( 1 4 3 4 0)
     EXX-fraction              =        0.00
     nstep                     =           50


     celldm(1)=   7.775823  celldm(2)=   0.000000  celldm(3)=   0.000000
     celldm(4)=   0.000000  celldm(5)=   0.000000  celldm(6)=   0.000000

     crystal axes: (cart. coord. in units of alat)
               a(1) = (   1.000000   0.000000   0.000000 )  
               a(2) = (   0.492957   0.834054   0.000000 )  
               a(3) = (   0.999940   0.534408   0.778847 )  

     reciprocal axes: (cart. coord. in units 2 pi/alat)
               b(1) = (  1.000000 -0.591038 -0.878330 )  
               b(2) = (  0.000000  1.198964 -0.822672 )  
               b(3) = (  0.000000  0.000000  1.283949 )  


     PseudoPot. # 1 for Na read from file:
     /projects/e20438/bin/espresso/pseudo/Na.pbe-spn-kjpaw_psl.0.2.UPF
     MD5 check sum: af6cebf537ceac8ff9d4cdfd6fc7ff14
     Pseudo is Projector augmented-wave, Zval =  9.0
     Generated using "atomic" code by A. Dal Corso  v.5.0.2 svn rev. 9415
     Shape of augmentation charge: PSQ
     Using radial grid of 1121 points,  4 beta functions with: 
                l(1) =   0
                l(2) =   0
                l(3) =   1
                l(4) =   1
     Q(r) pseudized with 0 coefficients 


     PseudoPot. # 2 for Cl read from file:
     /projects/e20438/bin/espresso/pseudo/Cl.pbe-n-kjpaw_psl.0.1.UPF
     MD5 check sum: 39501d8aaca1fada178cfed307344fc1
     Pseudo is Projector augmented-wave + core cor, Zval =  7.0
     Generated using "atomic" code by A. Dal Corso  v.5.0.2 svn rev. 9415
     Shape of augmentation charge: PSQ
     Using radial grid of 1157 points,  4 beta functions with: 
                l(1) =   0
                l(2) =   0
                l(3) =   1
                l(4) =   1
     Q(r) pseudized with 0 coefficients 


     atomic species   valence    mass     pseudopotential
        Na             9.00    22.98977     Na( 1.00)
        Cl             7.00    35.45270     Cl( 1.00)

     No symmetry found



   Cartesian axes

     site n.     atom                  positions (alat units)
         1           Na  tau(   1) = (   0.8132858   0.0171026   0.0127293  )
         2           Cl  tau(   2) = (   1.3132857   0.2842887   0.4021261  )

     number of k points=    62
                       cart. coord. in units 2pi/alat
        k(    1) = (   0.0000000   0.0000000   0.0000000), wk =   0.0166667
        k(    2) = (   0.0000000   0.0000000   0.2139916), wk =   0.0333333
        k(    3) = (   0.0000000   0.0000000   0.4279832), wk =   0.0333333
        k(    4) = (   0.0000000   0.0000000  -0.6419747), wk =   0.0166667
        k(    5) = (   0.0000000   0.2397927  -0.1645345), wk =   0.0333333
        k(    6) = (   0.0000000   0.2397927   0.0494571), wk =   0.0333333
        k(    7) = (   0.0000000   0.2397927   0.2634487), wk =   0.0333333
        k(    8) = (   0.0000000   0.2397927  -0.8065092), wk =   0.0333333
        k(    9) = (   0.0000000   0.2397927  -0.5925177), wk =   0.0333333
        k(   10) = (   0.0000000   0.2397927  -0.3785261), wk =   0.0333333
        k(   11) = (   0.0000000   0.4795855  -0.3290690), wk =   0.0333333
        k(   12) = (   0.0000000   0.4795855  -0.1150774), wk =   0.0333333
        k(   13) = (   0.0000000   0.4795855   0.0989142), wk =   0.0333333
        k(   14) = (   0.0000000   0.4795855  -0.9710437), wk =   0.0333333
        k(   15) = (   0.0000000   0.4795855  -0.7570521), wk =   0.0333333
        k(   16) = (   0.0000000   0.4795855  -0.5430606), wk =   0.0333333
        k(   17) = (   0.2500000  -0.1477595  -0.2195824), wk =   0.0333333
        k(   18) = (   0.2500000  -0.1477595  -0.0055908), wk =   0.0333333
        k(   19) = (   0.2500000  -0.1477595   0.2084008), wk =   0.0333333
        k(   20) = (   0.2500000  -0.1477595  -0.8615571), wk =   0.0333333
        k(   21) = (   0.2500000  -0.1477595  -0.6475656), wk =   0.0333333
        k(   22) = (   0.2500000  -0.1477595  -0.4335740), wk =   0.0333333
        k(   23) = (   0.2500000   0.0920332  -0.3841169), wk =   0.0333333
        k(   24) = (   0.2500000   0.0920332  -0.1701253), wk =   0.0333333
        k(   25) = (   0.2500000   0.0920332   0.0438663), wk =   0.0333333
        k(   26) = (   0.2500000   0.0920332  -1.0260916), wk =   0.0333333
        k(   27) = (   0.2500000   0.0920332  -0.8121000), wk =   0.0333333
        k(   28) = (   0.2500000   0.0920332  -0.5981085), wk =   0.0333333
        k(   29) = (   0.2500000   0.3318260  -0.5486514), wk =   0.0333333
        k(   30) = (   0.2500000   0.3318260  -0.3346598), wk =   0.0333333
        k(   31) = (   0.2500000   0.3318260  -0.1206682), wk =   0.0333333
        k(   32) = (   0.2500000   0.3318260  -1.1906261), wk =   0.0333333
        k(   33) = (   0.2500000   0.3318260  -0.9766345), wk =   0.0333333
        k(   34) = (   0.2500000   0.3318260  -0.7626429), wk =   0.0333333
        k(   35) = (   0.2500000  -0.6273449   0.1094866), wk =   0.0333333
        k(   36) = (   0.2500000  -0.6273449   0.3234782), wk =   0.0333333
        k(   37) = (   0.2500000  -0.6273449   0.5374698), wk =   0.0333333
        k(   38) = (   0.2500000  -0.6273449  -0.5324882), wk =   0.0333333
        k(   39) = (   0.2500000  -0.6273449  -0.3184966), wk =   0.0333333
        k(   40) = (   0.2500000  -0.6273449  -0.1045050), wk =   0.0333333
        k(   41) = (   0.2500000  -0.3875522  -0.0550479), wk =   0.0333333
        k(   42) = (   0.2500000  -0.3875522   0.1589437), wk =   0.0333333
        k(   43) = (   0.2500000  -0.3875522   0.3729353), wk =   0.0333333
        k(   44) = (   0.2500000  -0.3875522  -0.6970226), wk =   0.0333333
        k(   45) = (   0.2500000  -0.3875522  -0.4830311), wk =   0.0333333
        k(   46) = (   0.2500000  -0.3875522  -0.2690395), wk =   0.0333333
        k(   47) = (  -0.5000000   0.2955190   0.4391648), wk =   0.0166667
        k(   48) = (  -0.5000000   0.2955190   0.6531564), wk =   0.0333333
        k(   49) = (  -0.5000000   0.2955190   0.8671479), wk =   0.0333333
        k(   50) = (  -0.5000000   0.2955190  -0.2028100), wk =   0.0166667
        k(   51) = (  -0.5000000   0.5353117   0.2746303), wk =   0.0333333
        k(   52) = (  -0.5000000   0.5353117   0.4886219), wk =   0.0333333
        k(   53) = (  -0.5000000   0.5353117   0.7026135), wk =   0.0333333
        k(   54) = (  -0.5000000   0.5353117  -0.3673445), wk =   0.0333333
        k(   55) = (  -0.5000000   0.5353117  -0.1533529), wk =   0.0333333
        k(   56) = (  -0.5000000   0.5353117   0.0606387), wk =   0.0333333
        k(   57) = (  -0.5000000   0.7751044   0.1100958), wk =   0.0333333
        k(   58) = (  -0.5000000   0.7751044   0.3240874), wk =   0.0333333
        k(   59) = (  -0.5000000   0.7751044   0.5380790), wk =   0.0333333
        k(   60) = (  -0.5000000   0.7751044  -0.5318789), wk =   0.0333333
        k(   61) = (  -0.5000000   0.7751044  -0.3178874), wk =   0.0333333
        k(   62) = (  -0.5000000   0.7751044  -0.1038958), wk =   0.0333333

     Dense  grid:    19187 G-vectors     FFT dimensions: (  40,  40,  54)

     Largest allocated arrays     est. size (Mb)     dimensions
        Kohn-Sham Wavefunctions         0.04 Mb     (    307,    8)
        NL pseudopotentials             0.07 Mb     (    307,   16)
        Each V/rho on FFT grid          0.17 Mb     (  11200)
        Each G-vector array             0.02 Mb     (   2399)
        G-vector shells                 0.02 Mb     (   2399)
     Largest temporary arrays     est. size (Mb)     dimensions
        Each subspace H/S matrix        0.00 Mb     (   4,   4)
        Each <psi_i|beta_j> matrix      0.00 Mb     (     16,    8)
        Arrays for rho mixing           1.37 Mb     (  11200,   8)

     Check: negative/imaginary core charge=   -0.000006    0.000000

     Initial potential from superposition of free atoms

     starting charge   15.49915, renormalised to   16.00000
     Starting wfc are   12 randomized atomic wfcs
     Checking if some PAW data can be deallocated... 

     total cpu time spent up to now is        1.7 secs

     Self-consistent Calculation

     iteration #  1     ecut=    60.00 Ry     beta=0.70
     CG style diagonalization
     ethr =  1.00E-02,  avg # of iterations =  2.0

     total cpu time spent up to now is        2.4 secs

     total energy              =    -188.77329170 Ry
     Harris-Foulkes estimate   =    -188.92397620 Ry
     estimated scf accuracy    <       0.18095613 Ry

     iteration #  2     ecut=    60.00 Ry     beta=0.70
     CG style diagonalization
     ethr =  1.13E-03,  avg # of iterations =  4.0

     total cpu time spent up to now is        3.7 secs

     total energy              =    -188.83170318 Ry
     Harris-Foulkes estimate   =    -188.84265798 Ry
     estimated scf accuracy    <       0.01837429 Ry

     iteration #  3     ecut=    60.00 Ry     beta=0.70
     CG style diagonalization
     ethr =  1.15E-04,  avg # of iterations =  4.8

     total cpu time spent up to now is        5.3 secs

     total energy              =    -188.84714915 Ry
     Harris-Foulkes estimate   =    -188.84975926 Ry
     estimated scf accuracy    <       0.00480361 Ry

     iteration #  4     ecut=    60.00 Ry     beta=0.70
     CG style diagonalization
     ethr =  3.00E-05,  avg # of iterations =  4.4

     total cpu time spent up to now is        6.7 secs

     total energy              =    -188.84938187 Ry
     Harris-Foulkes estimate   =    -188.84943890 Ry
     estimated scf accuracy    <       0.00014192 Ry

     iteration #  5     ecut=    60.00 Ry     beta=0.70
     CG style diagonalization
     c_bands:  1 eigenvalues not converged
     c_bands:  1 eigenvalues not converged
     ethr =  8.87E-07,  avg # of iterations =  7.9

     total cpu time spent up to now is        9.1 secs

     total energy              =    -188.85048810 Ry
     Harris-Foulkes estimate   =    -188.85065853 Ry
     estimated scf accuracy    <       0.00044202 Ry

     iteration #  6     ecut=    60.00 Ry     beta=0.70
     CG style diagonalization
     ethr =  8.87E-07,  avg # of iterations =  5.3

     total cpu time spent up to now is       10.8 secs

     total energy              =    -188.85069572 Ry
     Harris-Foulkes estimate   =    -188.85072064 Ry
     estimated scf accuracy    <       0.00010087 Ry

     iteration #  7     ecut=    60.00 Ry     beta=0.70
     CG style diagonalization
     ethr =  6.30E-07,  avg # of iterations =  4.7

     total cpu time spent up to now is       12.2 secs

     total energy              =    -188.85081490 Ry
     Harris-Foulkes estimate   =    -188.85079402 Ry
     estimated scf accuracy    <       0.00001924 Ry

     iteration #  8     ecut=    60.00 Ry     beta=0.70
     CG style diagonalization
     ethr =  1.20E-07,  avg # of iterations =  5.7

     total cpu time spent up to now is       14.1 secs

     total energy              =    -188.85080673 Ry
     Harris-Foulkes estimate   =    -188.85085166 Ry
     estimated scf accuracy    <       0.00008110 Ry

     iteration #  9     ecut=    60.00 Ry     beta=0.70
     CG style diagonalization
     ethr =  1.20E-07,  avg # of iterations =  5.1

     total cpu time spent up to now is       15.7 secs

     total energy              =    -188.85082752 Ry
     Harris-Foulkes estimate   =    -188.85082855 Ry
     estimated scf accuracy    <       0.00000282 Ry

     iteration # 10     ecut=    60.00 Ry     beta=0.70
     CG style diagonalization
     c_bands:  1 eigenvalues not converged
     ethr =  1.77E-08,  avg # of iterations =  6.5

     total cpu time spent up to now is       17.7 secs

     total energy              =    -188.85084035 Ry
     Harris-Foulkes estimate   =    -188.85084040 Ry
     estimated scf accuracy    <       0.00000012 Ry

     iteration # 11     ecut=    60.00 Ry     beta=0.70
     CG style diagonalization
     c_bands:  1 eigenvalues not converged
     c_bands:  1 eigenvalues not converged
     c_bands:  1 eigenvalues not converged
     c_bands:  1 eigenvalues not converged
     ethr =  7.51E-10,  avg # of iterations =  9.9

     total cpu time spent up to now is       20.7 secs

     total energy              =    -188.85084433 Ry
     Harris-Foulkes estimate   =    -188.85084432 Ry
     estimated scf accuracy    <       0.00000004 Ry

     iteration # 12     ecut=    60.00 Ry     beta=0.70
     CG style diagonalization
     c_bands:  1 eigenvalues not converged
     ethr =  2.78E-10,  avg # of iterations =  7.3

     total cpu time spent up to now is       22.9 secs

     total energy              =    -188.85084493 Ry
     Harris-Foulkes estimate   =    -188.85084487 Ry
     estimated scf accuracy    <       0.00000012 Ry

     iteration # 13     ecut=    60.00 Ry     beta=0.70
     CG style diagonalization
     c_bands:  1 eigenvalues not converged
     ethr =  2.78E-10,  avg # of iterations =  5.7

     total cpu time spent up to now is       24.7 secs

     total energy              =    -188.85084536 Ry
     Harris-Foulkes estimate   =    -188.85084504 Ry
     estimated scf accuracy    <       0.00000028 Ry

     iteration # 14     ecut=    60.00 Ry     beta=0.70
     CG style diagonalization
     ethr =  2.78E-10,  avg # of iterations =  4.9

     total cpu time spent up to now is       26.3 secs

     total energy              =    -188.85084508 Ry
     Harris-Foulkes estimate   =    -188.85084555 Ry
     estimated scf accuracy    <       0.00000150 Ry

     iteration # 15     ecut=    60.00 Ry     beta=0.70
     CG style diagonalization
     ethr =  2.78E-10,  avg # of iterations =  5.1

     total cpu time spent up to now is       28.0 secs

     total energy              =    -188.85084510 Ry
     Harris-Foulkes estimate   =    -188.85084514 Ry
     estimated scf accuracy    <       0.00000058 Ry

     iteration # 16     ecut=    60.00 Ry     beta=0.70
     CG style diagonalization
     ethr =  2.78E-10,  avg # of iterations =  4.0

     total cpu time spent up to now is       29.3 secs

     total energy              =    -188.85084509 Ry
     Harris-Foulkes estimate   =    -188.85084511 Ry
     estimated scf accuracy    <       0.00000044 Ry

     iteration # 17     ecut=    60.00 Ry     beta=0.70
     CG style diagonalization
     ethr =  2.78E-10,  avg # of iterations =  3.1

     total cpu time spent up to now is       30.3 secs

     total energy              =    -188.85084501 Ry
     Harris-Foulkes estimate   =    -188.85084509 Ry
     estimated scf accuracy    <       0.00000040 Ry

     iteration # 18     ecut=    60.00 Ry     beta=0.70
     CG style diagonalization
     ethr =  2.78E-10,  avg # of iterations =  3.6

     total cpu time spent up to now is       31.6 secs

     total energy              =    -188.85084491 Ry
     Harris-Foulkes estimate   =    -188.85084502 Ry
     estimated scf accuracy    <       0.00000020 Ry

     iteration # 19     ecut=    60.00 Ry     beta=0.70
     CG style diagonalization
     ethr =  2.78E-10,  avg # of iterations =  4.5

     total cpu time spent up to now is       33.0 secs

     End of self-consistent calculation

          k = 0.0000 0.0000 0.0000 (  2413 PWs)   bands (ev):

   -47.9611 -19.8762 -19.8720 -19.8678 -11.6604   0.8750   0.9768   1.0881

          k = 0.0000 0.0000 0.2140 (  2402 PWs)   bands (ev):

   -47.9608 -19.8828 -19.8735 -19.8683 -11.5772   0.4392   0.8100   0.9346

          k = 0.0000 0.0000 0.4280 (  2406 PWs)   bands (ev):

   -47.9604 -19.8971 -19.8752 -19.8691 -11.4036  -0.4966   0.6814   0.7805

          k = 0.0000 0.0000-0.6420 (  2402 PWs)   bands (ev):

   -47.9602 -19.9043 -19.8760 -19.8696 -11.3127  -0.8935   0.6202   0.7085

          k = 0.0000 0.2398-0.1645 (  2394 PWs)   bands (ev):

   -47.9607 -19.8804 -19.8786 -19.8707 -11.5235   0.1821   0.6398   0.8894

          k = 0.0000 0.2398 0.0495 (  2403 PWs)   bands (ev):

   -47.9608 -19.8841 -19.8740 -19.8687 -11.5549   0.3016   0.7729   0.9237

          k = 0.0000 0.2398 0.2634 (  2409 PWs)   bands (ev):

   -47.9605 -19.8922 -19.8757 -19.8682 -11.4595  -0.1139   0.6550   0.7642

          k = 0.0000 0.2398-0.8065 (  2411 PWs)   bands (ev):

   -47.9602 -19.8989 -19.8797 -19.8696 -11.3279  -0.5283   0.3015   0.6192

          k = 0.0000 0.2398-0.5925 (  2393 PWs)   bands (ev):

   -47.9601 -19.8987 -19.8808 -19.8716 -11.2943  -0.6410   0.2983   0.4938

          k = 0.0000 0.2398-0.3785 (  2395 PWs)   bands (ev):

   -47.9604 -19.8906 -19.8792 -19.8722 -11.3946  -0.3335   0.5028   0.6149

          k = 0.0000 0.4796-0.3291 (  2386 PWs)   bands (ev):

   -47.9602 -19.8900 -19.8826 -19.8754 -11.3215  -0.5696   0.2966   0.5996

          k = 0.0000 0.4796-0.1151 (  2393 PWs)   bands (ev):

   -47.9603 -19.8913 -19.8805 -19.8729 -11.3634  -0.4101   0.4493   0.5293

          k = 0.0000 0.4796 0.0989 (  2405 PWs)   bands (ev):

   -47.9603 -19.8993 -19.8761 -19.8700 -11.3615  -0.6447   0.6156   0.7094

          k = 0.0000 0.4796-0.9710 (  2408 PWs)   bands (ev):

   -47.9602 -19.9025 -19.8772 -19.8696 -11.3180  -0.7786   0.5732   0.6217

          k = 0.0000 0.4796-0.7571 (  2396 PWs)   bands (ev):

   -47.9601 -19.8966 -19.8837 -19.8721 -11.2766  -0.4865   0.0239   0.4549

          k = 0.0000 0.4796-0.5431 (  2387 PWs)   bands (ev):

   -47.9601 -19.8896 -19.8872 -19.8750 -11.2781  -0.5364   0.2356   0.2991

          k = 0.2500-0.1478-0.2196 (  2406 PWs)   bands (ev):

   -47.9605 -19.8869 -19.8759 -19.8729 -11.4622  -0.0671   0.6480   0.6843

          k = 0.2500-0.1478-0.0056 (  2392 PWs)   bands (ev):

   -47.9608 -19.8805 -19.8768 -19.8724 -11.5272  -0.0057   0.8208   0.9211

          k = 0.2500-0.1478 0.2084 (  2391 PWs)   bands (ev):

   -47.9606 -19.8851 -19.8782 -19.8714 -11.4747  -0.3036   0.7725   0.8878

          k = 0.2500-0.1478-0.8616 (  2393 PWs)   bands (ev):

   -47.9603 -19.8920 -19.8809 -19.8729 -11.3546  -0.4513   0.2018   0.7326

          k = 0.2500-0.1478-0.6476 (  2401 PWs)   bands (ev):

   -47.9601 -19.8980 -19.8795 -19.8743 -11.2859  -0.5668   0.0555   0.5806

          k = 0.2500-0.1478-0.4336 (  2400 PWs)   bands (ev):

   -47.9602 -19.8960 -19.8780 -19.8727 -11.3412  -0.4890   0.3998   0.5588

          k = 0.2500 0.0920-0.3841 (  2410 PWs)   bands (ev):

   -47.9604 -19.8921 -19.8806 -19.8708 -11.3803  -0.3932   0.3421   0.7339

          k = 0.2500 0.0920-0.1701 (  2389 PWs)   bands (ev):

   -47.9607 -19.8840 -19.8777 -19.8701 -11.5045  -0.1044   0.7902   0.8971

          k = 0.2500 0.0920 0.0439 (  2396 PWs)   bands (ev):

   -47.9608 -19.8794 -19.8763 -19.8724 -11.5418   0.1542   0.7454   0.9449

          k = 0.2500 0.0920-1.0261 (  2405 PWs)   bands (ev):

   -47.9605 -19.8871 -19.8758 -19.8732 -11.4570  -0.1031   0.6353   0.6913

          k = 0.2500 0.0920-0.8121 (  2396 PWs)   bands (ev):

   -47.9602 -19.8965 -19.8777 -19.8735 -11.3307  -0.5250   0.3559   0.5533

          k = 0.2500 0.0920-0.5981 (  2403 PWs)   bands (ev):

   -47.9601 -19.8984 -19.8801 -19.8729 -11.2911  -0.5946   0.1271   0.5789

          k = 0.2500 0.3318-0.5487 (  2395 PWs)   bands (ev):

   -47.9601 -19.8908 -19.8860 -19.8751 -11.2823  -0.3455  -0.1109   0.4189

          k = 0.2500 0.3318-0.3347 (  2393 PWs)   bands (ev):

   -47.9603 -19.8921 -19.8811 -19.8730 -11.3496  -0.5990   0.3714   0.6992

          k = 0.2500 0.3318-0.1207 (  2394 PWs)   bands (ev):

   -47.9605 -19.8904 -19.8796 -19.8704 -11.4133  -0.4840   0.6105   0.8082

          k = 0.2500 0.3318-1.1906 (  2407 PWs)   bands (ev):

   -47.9604 -19.8907 -19.8791 -19.8708 -11.4109  -0.2999   0.4690   0.7312

          k = 0.2500 0.3318-0.9766 (  2395 PWs)   bands (ev):

   -47.9602 -19.8957 -19.8781 -19.8727 -11.3441  -0.4748   0.4152   0.5505

          k = 0.2500 0.3318-0.7626 (  2404 PWs)   bands (ev):

   -47.9600 -19.8957 -19.8819 -19.8744 -11.2792  -0.4776   0.1366   0.3462

          k = 0.2500-0.6273 0.1095 (  2394 PWs)   bands (ev):

   -47.9601 -19.8909 -19.8840 -19.8767 -11.2855  -0.3467  -0.1173   0.4392

          k = 0.2500-0.6273 0.3235 (  2391 PWs)   bands (ev):

   -47.9601 -19.8875 -19.8827 -19.8810 -11.2893  -0.4014  -0.1599   0.5649

          k = 0.2500-0.6273 0.5375 (  2393 PWs)   bands (ev):

   -47.9601 -19.8899 -19.8825 -19.8783 -11.2955  -0.4957  -0.0249   0.5809

          k = 0.2500-0.6273-0.5325 (  2397 PWs)   bands (ev):

   -47.9601 -19.8923 -19.8849 -19.8735 -11.2980  -0.4254  -0.0270   0.5394

          k = 0.2500-0.6273-0.3185 (  2403 PWs)   bands (ev):

   -47.9601 -19.8986 -19.8797 -19.8729 -11.2938  -0.6001   0.1522   0.5808

          k = 0.2500-0.6273-0.1045 (  2400 PWs)   bands (ev):

   -47.9601 -19.8982 -19.8792 -19.8743 -11.2875  -0.5778   0.0710   0.5895

          k = 0.2500-0.3876-0.0550 (  2398 PWs)   bands (ev):

   -47.9604 -19.8912 -19.8794 -19.8725 -11.3853  -0.3926   0.3359   0.7590

          k = 0.2500-0.3876 0.1589 (  2396 PWs)   bands (ev):

   -47.9604 -19.8896 -19.8803 -19.8736 -11.3807  -0.5761   0.4888   0.7610

          k = 0.2500-0.3876 0.3729 (  2399 PWs)   bands (ev):

   -47.9602 -19.8894 -19.8817 -19.8771 -11.3260  -0.5859   0.2082   0.6492

          k = 0.2500-0.3876-0.6970 (  2403 PWs)   bands (ev):

   -47.9601 -19.8899 -19.8846 -19.8779 -11.2751  -0.2490  -0.1702   0.3130

          k = 0.2500-0.3876-0.4830 (  2402 PWs)   bands (ev):

   -47.9601 -19.8958 -19.8820 -19.8743 -11.2791  -0.4784   0.1218   0.3620

          k = 0.2500-0.3876-0.2690 (  2393 PWs)   bands (ev):

   -47.9602 -19.8962 -19.8778 -19.8734 -11.3346  -0.5082   0.3788   0.5432

          k =-0.5000 0.2955 0.4392 (  2402 PWs)   bands (ev):

   -47.9600 -19.8951 -19.8797 -19.8764 -11.2836  -0.6591   0.3712   0.4120

          k =-0.5000 0.2955 0.6532 (  2388 PWs)   bands (ev):

   -47.9601 -19.8911 -19.8815 -19.8772 -11.3040  -0.5200   0.1829   0.4967

          k =-0.5000 0.2955 0.8671 (  2390 PWs)   bands (ev):

   -47.9603 -19.8910 -19.8819 -19.8741 -11.3430  -0.7401   0.4778   0.6808

          k =-0.5000 0.2955-0.2028 (  2392 PWs)   bands (ev):

   -47.9604 -19.8952 -19.8781 -19.8722 -11.3617  -0.9482   0.7501   0.8472

          k =-0.5000 0.5353 0.2746 (  2390 PWs)   bands (ev):

   -47.9600 -19.8933 -19.8815 -19.8781 -11.2693  -0.3513  -0.0204   0.2568

          k =-0.5000 0.5353 0.4886 (  2387 PWs)   bands (ev):

   -47.9601 -19.8912 -19.8844 -19.8749 -11.2974  -0.5020   0.1415   0.4704

          k =-0.5000 0.5353 0.7026 (  2394 PWs)   bands (ev):

   -47.9603 -19.8869 -19.8813 -19.8779 -11.3498  -0.4577   0.2397   0.6256

          k =-0.5000 0.5353-0.3673 (  2387 PWs)   bands (ev):

   -47.9604 -19.8865 -19.8794 -19.8783 -11.3737  -0.5301   0.2640   0.8399

          k =-0.5000 0.5353-0.1534 (  2390 PWs)   bands (ev):

   -47.9603 -19.8897 -19.8820 -19.8750 -11.3458  -0.6756   0.4261   0.6686

          k =-0.5000 0.5353 0.0606 (  2400 PWs)   bands (ev):

   -47.9601 -19.8895 -19.8858 -19.8757 -11.2939  -0.4644   0.0092   0.4939

          k =-0.5000 0.7751 0.1101 (  2396 PWs)   bands (ev):

   -47.9600 -19.8945 -19.8804 -19.8770 -11.2781  -0.5769   0.2643   0.3435

          k =-0.5000 0.7751 0.3241 (  2399 PWs)   bands (ev):

   -47.9601 -19.8904 -19.8868 -19.8740 -11.2904  -0.4652   0.0331   0.4705

          k =-0.5000 0.7751 0.5381 (  2398 PWs)   bands (ev):

   -47.9603 -19.8948 -19.8821 -19.8713 -11.3299  -0.7976   0.5214   0.6515

          k =-0.5000 0.7751-0.5319 (  2398 PWs)   bands (ev):

   -47.9604 -19.8948 -19.8784 -19.8725 -11.3577  -0.8090   0.5602   0.8313

          k =-0.5000 0.7751-0.3179 (  2389 PWs)   bands (ev):

   -47.9603 -19.8885 -19.8817 -19.8762 -11.3468  -0.5154   0.2893   0.6279

          k =-0.5000 0.7751-0.1039 (  2399 PWs)   bands (ev):

   -47.9601 -19.8916 -19.8798 -19.8781 -11.3066  -0.5406   0.3102   0.4276

!    total energy              =    -188.85084495 Ry
     Harris-Foulkes estimate   =    -188.85084496 Ry
     estimated scf accuracy    <          8.0E-09 Ry

     total all-electron energy =     -1248.137837 Ry

     The total energy is the sum of the following terms:

     one-electron contribution =     -81.31065458 Ry
     hartree contribution      =      42.36895024 Ry
     xc contribution           =     -24.67696781 Ry
     ewald contribution        =     -68.61211896 Ry
     one-center paw contrib.   =     -56.62005383 Ry

     convergence has been achieved in  19 iterations

     Forces acting on atoms (Ry/au):

     atom    1 type  1   force =     0.00000684   -0.00000440   -0.00000174
     atom    2 type  2   force =    -0.00000684    0.00000440    0.00000174

     Total force =     0.000012     Total SCF correction =     0.000036
     SCF correction compared to forces is large: reduce conv_thr to get better values


     entering subroutine stress ...

          total   stress  (Ry/bohr**3)                   (kbar)     P=    5.63
  -0.00000833   0.00000799  -0.00000539         -1.23      1.18     -0.79
   0.00000799   0.00005222   0.00002547          1.18      7.68      3.75
  -0.00000539   0.00002547   0.00007089         -0.79      3.75     10.43


     BFGS Geometry Optimization

     number of scf cycles    =   1
     number of bfgs steps    =   0

     enthalpy new            =    -188.8508449522 Ry

     new trust radius        =       0.0065990141 bohr
     new conv_thr            =       0.0000000100 Ry

     new unit-cell volume =    306.28803 a.u.^3 (    45.38720 Ang^3 )

CELL_PARAMETERS (alat=  7.77582279)
   0.999791717   0.000199716  -0.000134871
   0.493021233   0.835240885   0.000464588
   0.999733026   0.535801300   0.780432586

ATOMIC_POSITIONS (crystal)
Na       0.791998377   0.010032867   0.016343483
Cl       0.792059685   0.010034254   0.516309892



     Writing output data file NaCl_pegs+pwscf.save
     NEW-OLD atomic charge density approx. for the potential
     NEW k-points:
        k(    1) = (   0.0000000   0.0000000   0.0000000), wk =   0.0166667
        k(    2) = (   0.0000288  -0.0001358   0.2136131), wk =   0.0333333
        k(    3) = (   0.0000577  -0.0002717   0.4272262), wk =   0.0333333
        k(    4) = (  -0.0000865   0.0004075  -0.6408393), wk =   0.0166667
        k(    5) = (  -0.0000700   0.2395847  -0.1643957), wk =   0.0333333
        k(    6) = (  -0.0000412   0.2394488   0.0492174), wk =   0.0333333
        k(    7) = (  -0.0000123   0.2393130   0.2628305), wk =   0.0333333
        k(    8) = (  -0.0001566   0.2399922  -0.8052350), wk =   0.0333333
        k(    9) = (  -0.0001277   0.2398564  -0.5916219), wk =   0.0333333
        k(   10) = (  -0.0000989   0.2397205  -0.3780088), wk =   0.0333333
        k(   11) = (  -0.0001401   0.4791693  -0.3287914), wk =   0.0333333
        k(   12) = (  -0.0001112   0.4790335  -0.1151783), wk =   0.0333333
        k(   13) = (  -0.0000824   0.4788976   0.0984348), wk =   0.0333333
        k(   14) = (  -0.0002266   0.4795769  -0.9696307), wk =   0.0333333
        k(   15) = (  -0.0001978   0.4794410  -0.7560176), wk =   0.0333333
        k(   16) = (  -0.0001689   0.4793052  -0.5424045), wk =   0.0333333
        k(   17) = (   0.2500520  -0.1474774  -0.2190665), wk =   0.0333333
        k(   18) = (   0.2500808  -0.1476133  -0.0054534), wk =   0.0333333
        k(   19) = (   0.2501097  -0.1477491   0.2081597), wk =   0.0333333
        k(   20) = (   0.2499655  -0.1470699  -0.8599058), wk =   0.0333333
        k(   21) = (   0.2499943  -0.1472057  -0.6462927), wk =   0.0333333
        k(   22) = (   0.2500231  -0.1473416  -0.4326796), wk =   0.0333333
        k(   23) = (   0.2499820   0.0921072  -0.3834622), wk =   0.0333333
        k(   24) = (   0.2500108   0.0919714  -0.1698491), wk =   0.0333333
        k(   25) = (   0.2500396   0.0918356   0.0437640), wk =   0.0333333
        k(   26) = (   0.2498954   0.0925148  -1.0243015), wk =   0.0333333
        k(   27) = (   0.2499243   0.0923789  -0.8106884), wk =   0.0333333
        k(   28) = (   0.2499531   0.0922431  -0.5970753), wk =   0.0333333
        k(   29) = (   0.2499119   0.3316919  -0.5478579), wk =   0.0333333
        k(   30) = (   0.2499408   0.3315561  -0.3342448), wk =   0.0333333
        k(   31) = (   0.2499696   0.3314202  -0.1206317), wk =   0.0333333
        k(   32) = (   0.2498254   0.3320994  -1.1886972), wk =   0.0333333
        k(   33) = (   0.2498542   0.3319636  -0.9750841), wk =   0.0333333
        k(   34) = (   0.2498831   0.3318278  -0.7614710), wk =   0.0333333
        k(   35) = (   0.2501921  -0.6266467   0.1097249), wk =   0.0333333
        k(   36) = (   0.2502209  -0.6267826   0.3233380), wk =   0.0333333
        k(   37) = (   0.2502497  -0.6269184   0.5369511), wk =   0.0333333
        k(   38) = (   0.2501055  -0.6262392  -0.5311144), wk =   0.0333333
        k(   39) = (   0.2501344  -0.6263750  -0.3175013), wk =   0.0333333
        k(   40) = (   0.2501632  -0.6265109  -0.1038882), wk =   0.0333333
        k(   41) = (   0.2501220  -0.3870621  -0.0546708), wk =   0.0333333
        k(   42) = (   0.2501509  -0.3871979   0.1589423), wk =   0.0333333
        k(   43) = (   0.2501797  -0.3873338   0.3725554), wk =   0.0333333
        k(   44) = (   0.2500355  -0.3866545  -0.6955101), wk =   0.0333333
        k(   45) = (   0.2500643  -0.3867904  -0.4818970), wk =   0.0333333
        k(   46) = (   0.2500932  -0.3869262  -0.2682839), wk =   0.0333333
        k(   47) = (  -0.5001040   0.2949548   0.4381330), wk =   0.0166667
        k(   48) = (  -0.5000751   0.2948190   0.6517461), wk =   0.0333333
        k(   49) = (  -0.5000463   0.2946831   0.8653592), wk =   0.0333333
        k(   50) = (  -0.5001905   0.2953624  -0.2027063), wk =   0.0166667
        k(   51) = (  -0.5001740   0.5345395   0.2737373), wk =   0.0333333
        k(   52) = (  -0.5001452   0.5344036   0.4873504), wk =   0.0333333
        k(   53) = (  -0.5001163   0.5342678   0.7009635), wk =   0.0333333
        k(   54) = (  -0.5002605   0.5349470  -0.3671019), wk =   0.0333333
        k(   55) = (  -0.5002317   0.5348112  -0.1534889), wk =   0.0333333
        k(   56) = (  -0.5002029   0.5346753   0.0601242), wk =   0.0333333
        k(   57) = (  -0.5002441   0.7741241   0.1093416), wk =   0.0333333
        k(   58) = (  -0.5002152   0.7739883   0.3229547), wk =   0.0333333
        k(   59) = (  -0.5001864   0.7738525   0.5365678), wk =   0.0333333
        k(   60) = (  -0.5003306   0.7745317  -0.5314976), wk =   0.0333333
        k(   61) = (  -0.5003017   0.7743958  -0.3178845), wk =   0.0333333
        k(   62) = (  -0.5002729   0.7742600  -0.1042715), wk =   0.0333333

     Check: negative/imaginary core charge=   -0.000006    0.000000
     extrapolated charge   16.04436, renormalised to   16.00000

     total cpu time spent up to now is       34.5 secs

     Self-consistent Calculation

     iteration #  1     ecut=    60.00 Ry     beta=0.70
     CG style diagonalization
     ethr =  1.00E-06,  avg # of iterations =  4.1

     total cpu time spent up to now is       35.8 secs

     total energy              =    -188.85079805 Ry
     Harris-Foulkes estimate   =    -188.64440386 Ry
     estimated scf accuracy    <       0.00021217 Ry

     iteration #  2     ecut=    60.00 Ry     beta=0.70
     CG style diagonalization
     ethr =  1.33E-06,  avg # of iterations =  4.3

     total cpu time spent up to now is       37.1 secs

     total energy              =    -188.85087590 Ry
     Harris-Foulkes estimate   =    -188.85095156 Ry
     estimated scf accuracy    <       0.00011139 Ry

     iteration #  3     ecut=    60.00 Ry     beta=0.70
     CG style diagonalization
     ethr =  6.96E-07,  avg # of iterations =  4.0

     total cpu time spent up to now is       38.6 secs

     total energy              =    -188.85089998 Ry
     Harris-Foulkes estimate   =    -188.85091483 Ry
     estimated scf accuracy    <       0.00002001 Ry

     iteration #  4     ecut=    60.00 Ry     beta=0.70
     CG style diagonalization
     ethr =  1.25E-07,  avg # of iterations =  3.9

     total cpu time spent up to now is       39.9 secs

     total energy              =    -188.85090455 Ry
     Harris-Foulkes estimate   =    -188.85090562 Ry
     estimated scf accuracy    <       0.00000188 Ry

     iteration #  5     ecut=    60.00 Ry     beta=0.70
     CG style diagonalization
     ethr =  1.18E-08,  avg # of iterations =  4.9

     total cpu time spent up to now is       41.4 secs

     total energy              =    -188.85090623 Ry
     Harris-Foulkes estimate   =    -188.85090729 Ry
     estimated scf accuracy    <       0.00000193 Ry

     iteration #  6     ecut=    60.00 Ry     beta=0.70
     CG style diagonalization
     ethr =  1.18E-08,  avg # of iterations =  3.9

     total cpu time spent up to now is       43.3 secs

     total energy              =    -188.85090685 Ry
     Harris-Foulkes estimate   =    -188.85090694 Ry
     estimated scf accuracy    <       0.00000012 Ry

     iteration #  7     ecut=    60.00 Ry     beta=0.70
     CG style diagonalization
     c_bands:  1 eigenvalues not converged
     ethr =  7.77E-10,  avg # of iterations =  6.7

     total cpu time spent up to now is       45.3 secs

     total energy              =    -188.85090767 Ry
     Harris-Foulkes estimate   =    -188.85090779 Ry
     estimated scf accuracy    <       0.00000030 Ry

     iteration #  8     ecut=    60.00 Ry     beta=0.70
     CG style diagonalization
     ethr =  7.77E-10,  avg # of iterations =  4.4

     total cpu time spent up to now is       46.9 secs

     total energy              =    -188.85090781 Ry
     Harris-Foulkes estimate   =    -188.85090780 Ry
     estimated scf accuracy    <       0.00000009 Ry

     iteration #  9     ecut=    60.00 Ry     beta=0.70
     CG style diagonalization
     ethr =  5.48E-10,  avg # of iterations =  4.0

     total cpu time spent up to now is       48.3 secs

     total energy              =    -188.85090784 Ry
     Harris-Foulkes estimate   =    -188.85090787 Ry
     estimated scf accuracy    <       0.00000008 Ry

     iteration # 10     ecut=    60.00 Ry     beta=0.70
     CG style diagonalization
     ethr =  5.21E-10,  avg # of iterations =  4.1

     total cpu time spent up to now is       49.6 secs

     total energy              =    -188.85090785 Ry
     Harris-Foulkes estimate   =    -188.85090795 Ry
     estimated scf accuracy    <       0.00000018 Ry

     iteration # 11     ecut=    60.00 Ry     beta=0.70
     CG style diagonalization
     ethr =  5.21E-10,  avg # of iterations =  4.0

     total cpu time spent up to now is       50.9 secs

     total energy              =    -188.85090786 Ry
     Harris-Foulkes estimate   =    -188.85090788 Ry
     estimated scf accuracy    <       0.00000003 Ry

     iteration # 12     ecut=    60.00 Ry     beta=0.70
     CG style diagonalization
     ethr =  1.71E-10,  avg # of iterations =  4.4

     total cpu time spent up to now is       52.3 secs

     End of self-consistent calculation

          k = 0.0000 0.0000 0.0000 (  2413 PWs)   bands (ev):

   -47.9875 -19.9025 -19.8984 -19.8944 -11.6751   0.8585   0.9557   1.0616

          k = 0.0000-0.0001 0.2136 (  2402 PWs)   bands (ev):

   -47.9873 -19.9089 -19.8999 -19.8949 -11.5929   0.4182   0.7936   0.9127

          k = 0.0001-0.0003 0.4272 (  2406 PWs)   bands (ev):

   -47.9869 -19.9231 -19.9016 -19.8957 -11.4213  -0.5126   0.6656   0.7607

          k =-0.0001 0.0004-0.6408 (  2402 PWs)   bands (ev):

   -47.9867 -19.9301 -19.9024 -19.8962 -11.3315  -0.9072   0.6047   0.6895

          k =-0.0001 0.2396-0.1644 (  2394 PWs)   bands (ev):

   -47.9872 -19.9067 -19.9049 -19.8973 -11.5393   0.1648   0.6249   0.8629

          k = 0.0000 0.2394 0.0492 (  2403 PWs)   bands (ev):

   -47.9873 -19.9102 -19.9004 -19.8953 -11.5708   0.2813   0.7568   0.9018

          k = 0.0000 0.2393 0.2628 (  2409 PWs)   bands (ev):

   -47.9870 -19.9182 -19.9021 -19.8948 -11.4768  -0.1303   0.6347   0.7475

          k =-0.0002 0.2400-0.8052 (  2411 PWs)   bands (ev):

   -47.9867 -19.9247 -19.9061 -19.8962 -11.3465  -0.5421   0.2827   0.6037

          k =-0.0001 0.2399-0.5916 (  2393 PWs)   bands (ev):

   -47.9866 -19.9247 -19.9071 -19.8982 -11.3129  -0.6564   0.2806   0.4794

          k =-0.0001 0.2397-0.3780 (  2395 PWs)   bands (ev):

   -47.9869 -19.9167 -19.9055 -19.8987 -11.4118  -0.3503   0.4888   0.5929

          k =-0.0001 0.4792-0.3288 (  2386 PWs)   bands (ev):

   -47.9867 -19.9162 -19.9088 -19.9019 -11.3388  -0.5837   0.2842   0.5732

          k =-0.0001 0.4790-0.1152 (  2393 PWs)   bands (ev):

   -47.9868 -19.9175 -19.9068 -19.8994 -11.3808  -0.4263   0.4356   0.5073

          k =-0.0001 0.4789 0.0984 (  2405 PWs)   bands (ev):

   -47.9868 -19.9252 -19.9024 -19.8966 -11.3796  -0.6604   0.6004   0.6903

          k =-0.0002 0.4796-0.9696 (  2408 PWs)   bands (ev):

   -47.9867 -19.9283 -19.9035 -19.8962 -11.3368  -0.7924   0.5548   0.6059

          k =-0.0002 0.4794-0.7560 (  2396 PWs)   bands (ev):

   -47.9866 -19.9226 -19.9100 -19.8987 -11.2953  -0.5023   0.0069   0.4408

          k =-0.0002 0.4793-0.5424 (  2387 PWs)   bands (ev):

   -47.9866 -19.9158 -19.9134 -19.9015 -11.2960  -0.5509   0.2132   0.2865

          k = 0.2501-0.1475-0.2191 (  2406 PWs)   bands (ev):

   -47.9870 -19.9129 -19.9023 -19.8995 -11.4788  -0.0837   0.6293   0.6637

          k = 0.2501-0.1476-0.0055 (  2392 PWs)   bands (ev):

   -47.9872 -19.9068 -19.9031 -19.8989 -11.5427  -0.0207   0.8002   0.8961

          k = 0.2501-0.1477 0.2082 (  2391 PWs)   bands (ev):

   -47.9871 -19.9115 -19.9045 -19.8979 -11.4906  -0.3172   0.7504   0.8642

          k = 0.2500-0.1471-0.8599 (  2393 PWs)   bands (ev):

   -47.9868 -19.9181 -19.9072 -19.8994 -11.3719  -0.4662   0.1843   0.7122

          k = 0.2500-0.1472-0.6463 (  2401 PWs)   bands (ev):

   -47.9866 -19.9239 -19.9058 -19.9009 -11.3044  -0.5809   0.0397   0.5614

          k = 0.2500-0.1473-0.4327 (  2400 PWs)   bands (ev):

   -47.9867 -19.9219 -19.9044 -19.8993 -11.3592  -0.5026   0.3819   0.5394

          k = 0.2500 0.0921-0.3835 (  2410 PWs)   bands (ev):

   -47.9869 -19.9182 -19.9069 -19.8974 -11.3977  -0.4085   0.3238   0.7148

          k = 0.2500 0.0920-0.1698 (  2389 PWs)   bands (ev):

   -47.9872 -19.9103 -19.9040 -19.8967 -11.5204  -0.1199   0.7712   0.8728

          k = 0.2500 0.0918 0.0438 (  2396 PWs)   bands (ev):

   -47.9873 -19.9057 -19.9027 -19.8989 -11.5573   0.1375   0.7267   0.9200

          k = 0.2499 0.0925-1.0243 (  2405 PWs)   bands (ev):

   -47.9870 -19.9132 -19.9022 -19.8998 -11.4736  -0.1196   0.6163   0.6709

          k = 0.2499 0.0924-0.8107 (  2396 PWs)   bands (ev):

   -47.9867 -19.9225 -19.9041 -19.9001 -11.3488  -0.5394   0.3381   0.5350

          k = 0.2500 0.0922-0.5971 (  2403 PWs)   bands (ev):

   -47.9866 -19.9243 -19.9064 -19.8995 -11.3096  -0.6089   0.1106   0.5610

          k = 0.2499 0.3317-0.5479 (  2395 PWs)   bands (ev):

   -47.9866 -19.9169 -19.9122 -19.9017 -11.3004  -0.3603  -0.1276   0.4010

          k = 0.2499 0.3316-0.3342 (  2393 PWs)   bands (ev):

   -47.9868 -19.9183 -19.9073 -19.8995 -11.3667  -0.6115   0.3537   0.6753

          k = 0.2500 0.3314-0.1206 (  2394 PWs)   bands (ev):

   -47.9870 -19.9166 -19.9059 -19.8970 -11.4299  -0.4972   0.5909   0.7851

          k = 0.2498 0.3321-1.1887 (  2407 PWs)   bands (ev):

   -47.9869 -19.9168 -19.9054 -19.8974 -11.4280  -0.3156   0.4502   0.7120

          k = 0.2499 0.3320-0.9751 (  2395 PWs)   bands (ev):

   -47.9867 -19.9216 -19.9044 -19.8993 -11.3621  -0.4885   0.3971   0.5312

          k = 0.2499 0.3318-0.7615 (  2404 PWs)   bands (ev):

   -47.9866 -19.9216 -19.9083 -19.9010 -11.2977  -0.4913   0.1186   0.3294

          k = 0.2502-0.6266 0.1097 (  2394 PWs)   bands (ev):

   -47.9866 -19.9170 -19.9104 -19.9032 -11.3034  -0.3615  -0.1335   0.4202

          k = 0.2502-0.6268 0.3233 (  2391 PWs)   bands (ev):

   -47.9866 -19.9138 -19.9089 -19.9074 -11.3066  -0.4157  -0.1733   0.5400

          k = 0.2502-0.6269 0.5370 (  2393 PWs)   bands (ev):

   -47.9867 -19.9161 -19.9087 -19.9048 -11.3129  -0.5088  -0.0397   0.5563

          k = 0.2501-0.6262-0.5311 (  2397 PWs)   bands (ev):

   -47.9867 -19.9184 -19.9112 -19.9000 -11.3160  -0.4401  -0.0440   0.5212

          k = 0.2501-0.6264-0.3175 (  2403 PWs)   bands (ev):

   -47.9866 -19.9245 -19.9060 -19.8995 -11.3123  -0.6143   0.1356   0.5629

          k = 0.2502-0.6265-0.1039 (  2400 PWs)   bands (ev):

   -47.9866 -19.9241 -19.9055 -19.9008 -11.3060  -0.5920   0.0553   0.5703

          k = 0.2501-0.3871-0.0547 (  2398 PWs)   bands (ev):

   -47.9869 -19.9173 -19.9057 -19.8990 -11.4024  -0.4078   0.3178   0.7385

          k = 0.2502-0.3872 0.1589 (  2396 PWs)   bands (ev):

   -47.9869 -19.9158 -19.9065 -19.9001 -11.3973  -0.5886   0.4694   0.7367

          k = 0.2502-0.3873 0.3726 (  2399 PWs)   bands (ev):

   -47.9868 -19.9157 -19.9079 -19.9035 -11.3430  -0.5986   0.1915   0.6243

          k = 0.2500-0.3867-0.6955 (  2403 PWs)   bands (ev):

   -47.9866 -19.9160 -19.9109 -19.9044 -11.2931  -0.2642  -0.1862   0.2945

          k = 0.2501-0.3868-0.4819 (  2402 PWs)   bands (ev):

   -47.9866 -19.9217 -19.9083 -19.9008 -11.2977  -0.4922   0.1040   0.3452

          k = 0.2501-0.3869-0.2683 (  2393 PWs)   bands (ev):

   -47.9867 -19.9222 -19.9041 -19.8999 -11.3527  -0.5226   0.3607   0.5251

          k =-0.5001 0.2950 0.4381 (  2402 PWs)   bands (ev):

   -47.9865 -19.9211 -19.9061 -19.9030 -11.3018  -0.6728   0.3537   0.3925

          k =-0.5001 0.2948 0.6517 (  2388 PWs)   bands (ev):

   -47.9866 -19.9172 -19.9079 -19.9036 -11.3216  -0.5352   0.1666   0.4766

          k =-0.5000 0.2947 0.8654 (  2390 PWs)   bands (ev):

   -47.9868 -19.9174 -19.9081 -19.9005 -11.3597  -0.7529   0.4570   0.6590

          k =-0.5002 0.2954-0.2027 (  2392 PWs)   bands (ev):

   -47.9869 -19.9215 -19.9044 -19.8987 -11.3780  -0.9596   0.7290   0.8211

          k =-0.5002 0.5345 0.2737 (  2390 PWs)   bands (ev):

   -47.9865 -19.9193 -19.9079 -19.9047 -11.2877  -0.3656  -0.0371   0.2387

          k =-0.5001 0.5344 0.4874 (  2387 PWs)   bands (ev):

   -47.9866 -19.9172 -19.9107 -19.9014 -11.3153  -0.5173   0.1244   0.4521

          k =-0.5001 0.5343 0.7010 (  2394 PWs)   bands (ev):

   -47.9868 -19.9132 -19.9076 -19.9043 -11.3667  -0.4732   0.2231   0.6037

          k =-0.5003 0.5349-0.3671 (  2387 PWs)   bands (ev):

   -47.9869 -19.9129 -19.9058 -19.9045 -11.3900  -0.5440   0.2469   0.8142

          k =-0.5002 0.5348-0.1535 (  2390 PWs)   bands (ev):

   -47.9868 -19.9160 -19.9081 -19.9015 -11.3625  -0.6889   0.4062   0.6465

          k =-0.5002 0.5347 0.0601 (  2400 PWs)   bands (ev):

   -47.9866 -19.9155 -19.9122 -19.9022 -11.3116  -0.4794  -0.0067   0.4735

          k =-0.5002 0.7741 0.1093 (  2396 PWs)   bands (ev):

   -47.9865 -19.9204 -19.9067 -19.9036 -11.2963  -0.5908   0.2469   0.3247

          k =-0.5002 0.7740 0.3230 (  2399 PWs)   bands (ev):

   -47.9866 -19.9165 -19.9131 -19.9006 -11.3084  -0.4806   0.0171   0.4517

          k =-0.5002 0.7739 0.5366 (  2398 PWs)   bands (ev):

   -47.9868 -19.9209 -19.9083 -19.8979 -11.3472  -0.8106   0.5000   0.6324

          k =-0.5003 0.7745-0.5315 (  2398 PWs)   bands (ev):

   -47.9869 -19.9210 -19.9047 -19.8991 -11.3745  -0.8217   0.5424   0.8060

          k =-0.5003 0.7744-0.3179 (  2389 PWs)   bands (ev):

   -47.9868 -19.9148 -19.9079 -19.9027 -11.3637  -0.5304   0.2721   0.6063

          k =-0.5003 0.7743-0.1043 (  2399 PWs)   bands (ev):

   -47.9866 -19.9176 -19.9062 -19.9046 -11.3243  -0.5558   0.2930   0.4084

!    total energy              =    -188.85090787 Ry
     Harris-Foulkes estimate   =    -188.85090787 Ry
     estimated scf accuracy    <          3.0E-09 Ry

     total all-electron energy =     -1248.137900 Ry

     The total energy is the sum of the following terms:

     one-electron contribution =     -81.41805105 Ry
     hartree contribution      =      42.40846211 Ry
     xc contribution           =     -24.67582446 Ry
     ewald contribution        =     -68.54557316 Ry
     one-center paw contrib.   =     -56.61992131 Ry

     convergence has been achieved in  12 iterations

     Forces acting on atoms (Ry/au):

     atom    1 type  1   force =     0.00000365   -0.00000259   -0.00000564
     atom    2 type  2   force =    -0.00000365    0.00000259    0.00000564

     Total force =     0.000010     Total SCF correction =     0.000001


     entering subroutine stress ...

          total   stress  (Ry/bohr**3)                   (kbar)     P=    4.22
  -0.00001593   0.00000753  -0.00000507         -2.34      1.11     -0.75
   0.00000753   0.00004221   0.00002406          1.11      6.21      3.54
  -0.00000507   0.00002406   0.00005978         -0.75      3.54      8.79


     number of scf cycles    =   2
     number of bfgs steps    =   1

     enthalpy old            =    -188.8508449522 Ry
     enthalpy new            =    -188.8509078715 Ry

     CASE: enthalpy_new < enthalpy_old


     WARNING: bfgs curvature condition failed, Theta= 0.933
     new trust radius        =       0.0098917428 bohr
     new conv_thr            =            1.0E-10 Ry

     new unit-cell volume =    307.46372 a.u.^3 (    45.56142 Ang^3 )

CELL_PARAMETERS (alat=  7.77582279)
   0.999147160   0.000525968  -0.000354716
   0.492975612   0.836957974   0.001223362
   0.999091634   0.537934433   0.782812958

ATOMIC_POSITIONS (crystal)
Na       0.792000640   0.010033058   0.016342019
Cl       0.792057422   0.010034063   0.516311356



     Writing output data file NaCl_pegs+pwscf.save
     NEW-OLD atomic charge density approx. for the potential
     NEW k-points:
        k(    1) = (   0.0000000   0.0000000   0.0000000), wk =   0.0166667
        k(    2) = (   0.0000758  -0.0003561   0.2130553), wk =   0.0333333
        k(    3) = (   0.0001517  -0.0007122   0.4261106), wk =   0.0333333
        k(    4) = (  -0.0002275   0.0010682  -0.6391659), wk =   0.0166667
        k(    5) = (  -0.0001843   0.2393092  -0.1642136), wk =   0.0333333
        k(    6) = (  -0.0001084   0.2389531   0.0488417), wk =   0.0333333
        k(    7) = (  -0.0000326   0.2385970   0.2618970), wk =   0.0333333
        k(    8) = (  -0.0004118   0.2403774  -0.8033795), wk =   0.0333333
        k(    9) = (  -0.0003359   0.2400214  -0.5903242), wk =   0.0333333
        k(   10) = (  -0.0002601   0.2396653  -0.3772689), wk =   0.0333333
        k(   11) = (  -0.0003686   0.4786184  -0.3284272), wk =   0.0333333
        k(   12) = (  -0.0002927   0.4782623  -0.1153719), wk =   0.0333333
        k(   13) = (  -0.0002169   0.4779062   0.0976834), wk =   0.0333333
        k(   14) = (  -0.0005960   0.4796866  -0.9675932), wk =   0.0333333
        k(   15) = (  -0.0005202   0.4793305  -0.7545379), wk =   0.0333333
        k(   16) = (  -0.0004444   0.4789745  -0.5414825), wk =   0.0333333
        k(   17) = (   0.2502133  -0.1470588  -0.2182872), wk =   0.0333333
        k(   18) = (   0.2502891  -0.1474149  -0.0052319), wk =   0.0333333
        k(   19) = (   0.2503650  -0.1477709   0.2078234), wk =   0.0333333
        k(   20) = (   0.2499858  -0.1459905  -0.8574531), wk =   0.0333333
        k(   21) = (   0.2500617  -0.1463466  -0.6443978), wk =   0.0333333
        k(   22) = (   0.2501375  -0.1467027  -0.4313425), wk =   0.0333333
        k(   23) = (   0.2500290   0.0922504  -0.3825008), wk =   0.0333333
        k(   24) = (   0.2501049   0.0918943  -0.1694455), wk =   0.0333333
        k(   25) = (   0.2501807   0.0915383   0.0436098), wk =   0.0333333
        k(   26) = (   0.2498016   0.0933187  -1.0216667), wk =   0.0333333
        k(   27) = (   0.2498774   0.0929626  -0.8086114), wk =   0.0333333
        k(   28) = (   0.2499532   0.0926065  -0.5955561), wk =   0.0333333
        k(   29) = (   0.2498448   0.3315596  -0.5467144), wk =   0.0333333
        k(   30) = (   0.2499206   0.3312035  -0.3336591), wk =   0.0333333
        k(   31) = (   0.2499964   0.3308474  -0.1206038), wk =   0.0333333
        k(   32) = (   0.2496173   0.3326278  -1.1858804), wk =   0.0333333
        k(   33) = (   0.2496931   0.3322718  -0.9728250), wk =   0.0333333
        k(   34) = (   0.2497689   0.3319157  -0.7597697), wk =   0.0333333
        k(   35) = (   0.2505819  -0.6256772   0.1101400), wk =   0.0333333
        k(   36) = (   0.2506577  -0.6260332   0.3231953), wk =   0.0333333
        k(   37) = (   0.2507335  -0.6263893   0.5362507), wk =   0.0333333
        k(   38) = (   0.2503544  -0.6246089  -0.5290259), wk =   0.0333333
        k(   39) = (   0.2504302  -0.6249650  -0.3159706), wk =   0.0333333
        k(   40) = (   0.2505060  -0.6253211  -0.1029153), wk =   0.0333333
        k(   41) = (   0.2503976  -0.3863680  -0.0540736), wk =   0.0333333
        k(   42) = (   0.2504734  -0.3867240   0.1589817), wk =   0.0333333
        k(   43) = (   0.2505492  -0.3870801   0.3720370), wk =   0.0333333
        k(   44) = (   0.2501701  -0.3852997  -0.6932395), wk =   0.0333333
        k(   45) = (   0.2502459  -0.3856558  -0.4801842), wk =   0.0333333
        k(   46) = (   0.2503218  -0.3860119  -0.2671289), wk =   0.0333333
        k(   47) = (  -0.5004266   0.2941176   0.4365744), wk =   0.0166667
        k(   48) = (  -0.5003508   0.2937615   0.6496297), wk =   0.0333333
        k(   49) = (  -0.5002750   0.2934054   0.8626850), wk =   0.0333333
        k(   50) = (  -0.5006541   0.2951858  -0.2025915), wk =   0.0166667
        k(   51) = (  -0.5006109   0.5334267   0.2723608), wk =   0.0333333
        k(   52) = (  -0.5005351   0.5330707   0.4854161), wk =   0.0333333
        k(   53) = (  -0.5004592   0.5327146   0.6984714), wk =   0.0333333
        k(   54) = (  -0.5008384   0.5344950  -0.3668052), wk =   0.0333333
        k(   55) = (  -0.5007625   0.5341389  -0.1537498), wk =   0.0333333
        k(   56) = (  -0.5006867   0.5337828   0.0593055), wk =   0.0333333
        k(   57) = (  -0.5007952   0.7727359   0.1081472), wk =   0.0333333
        k(   58) = (  -0.5007193   0.7723799   0.3212025), wk =   0.0333333
        k(   59) = (  -0.5006435   0.7720238   0.5342578), wk =   0.0333333
        k(   60) = (  -0.5010226   0.7738042  -0.5310188), wk =   0.0333333
        k(   61) = (  -0.5009468   0.7734481  -0.3179635), wk =   0.0333333
        k(   62) = (  -0.5008710   0.7730920  -0.1049082), wk =   0.0333333

     Check: negative/imaginary core charge=   -0.000005    0.000000
     extrapolated charge   16.05927, renormalised to   16.00000

     total cpu time spent up to now is       53.2 secs

     Self-consistent Calculation

     iteration #  1     ecut=    60.00 Ry     beta=0.70
     CG style diagonalization
     ethr =  1.00E-06,  avg # of iterations =  4.2

     total cpu time spent up to now is       54.5 secs

     total energy              =    -188.85079722 Ry
     Harris-Foulkes estimate   =    -188.57489592 Ry
     estimated scf accuracy    <       0.00038925 Ry

     iteration #  2     ecut=    60.00 Ry     beta=0.70
     CG style diagonalization
     ethr =  2.43E-06,  avg # of iterations =  4.4

     total cpu time spent up to now is       56.4 secs

     total energy              =    -188.85093541 Ry
     Harris-Foulkes estimate   =    -188.85107293 Ry
     estimated scf accuracy    <       0.00020173 Ry

     iteration #  3     ecut=    60.00 Ry     beta=0.70
     CG style diagonalization
     ethr =  1.26E-06,  avg # of iterations =  4.0

     total cpu time spent up to now is       57.7 secs

     total energy              =    -188.85097842 Ry
     Harris-Foulkes estimate   =    -188.85100215 Ry
     estimated scf accuracy    <       0.00003191 Ry

     iteration #  4     ecut=    60.00 Ry     beta=0.70
     CG style diagonalization
     ethr =  1.99E-07,  avg # of iterations =  3.9

     total cpu time spent up to now is       58.9 secs

     total energy              =    -188.85098684 Ry
     Harris-Foulkes estimate   =    -188.85098856 Ry
     estimated scf accuracy    <       0.00000302 Ry

     iteration #  5     ecut=    60.00 Ry     beta=0.70
     CG style diagonalization
     ethr =  1.89E-08,  avg # of iterations =  4.9

     total cpu time spent up to now is       60.5 secs

     total energy              =    -188.85099000 Ry
     Harris-Foulkes estimate   =    -188.85099167 Ry
     estimated scf accuracy    <       0.00000294 Ry

     iteration #  6     ecut=    60.00 Ry     beta=0.70
     CG style diagonalization
     ethr =  1.84E-08,  avg # of iterations =  4.1

     total cpu time spent up to now is       61.8 secs

     total energy              =    -188.85099128 Ry
     Harris-Foulkes estimate   =    -188.85099136 Ry
     estimated scf accuracy    <       0.00000012 Ry

     iteration #  7     ecut=    60.00 Ry     beta=0.70
     CG style diagonalization
     c_bands:  1 eigenvalues not converged
     c_bands:  1 eigenvalues not converged
     c_bands:  1 eigenvalues not converged
     c_bands:  1 eigenvalues not converged
     c_bands:  1 eigenvalues not converged
     ethr =  7.57E-10,  avg # of iterations =  6.6

     total cpu time spent up to now is       64.6 secs

     total energy              =    -188.85099278 Ry
     Harris-Foulkes estimate   =    -188.85099291 Ry
     estimated scf accuracy    <       0.00000036 Ry

     iteration #  8     ecut=    60.00 Ry     beta=0.70
     CG style diagonalization
     ethr =  7.57E-10,  avg # of iterations =  4.5

     total cpu time spent up to now is       66.1 secs

     total energy              =    -188.85099293 Ry
     Harris-Foulkes estimate   =    -188.85099297 Ry
     estimated scf accuracy    <       0.00000013 Ry

     iteration #  9     ecut=    60.00 Ry     beta=0.70
     CG style diagonalization
     ethr =  7.57E-10,  avg # of iterations =  4.2

     total cpu time spent up to now is       68.0 secs

     total energy              =    -188.85099299 Ry
     Harris-Foulkes estimate   =    -188.85099300 Ry
     estimated scf accuracy    <       0.00000003 Ry

     iteration # 10     ecut=    60.00 Ry     beta=0.70
     CG style diagonalization
     ethr =  1.93E-10,  avg # of iterations =  4.8

     total cpu time spent up to now is       70.0 secs

     total energy              =    -188.85099303 Ry
     Harris-Foulkes estimate   =    -188.85099303 Ry
     estimated scf accuracy    <          4.0E-09 Ry

     iteration # 11     ecut=    60.00 Ry     beta=0.70
     CG style diagonalization
     ethr =  2.53E-11,  avg # of iterations =  6.1

     total cpu time spent up to now is       71.9 secs

     total energy              =    -188.85099305 Ry
     Harris-Foulkes estimate   =    -188.85099305 Ry
     estimated scf accuracy    <          2.4E-10 Ry

     iteration # 12     ecut=    60.00 Ry     beta=0.70
     CG style diagonalization
     c_bands:  1 eigenvalues not converged
     c_bands:  1 eigenvalues not converged
     c_bands:  1 eigenvalues not converged
     c_bands:  1 eigenvalues not converged
     c_bands:  1 eigenvalues not converged
     ethr =  1.49E-12,  avg # of iterations =  7.9

     total cpu time spent up to now is       74.9 secs

     total energy              =    -188.85099305 Ry
     Harris-Foulkes estimate   =    -188.85099305 Ry
     estimated scf accuracy    <          1.2E-09 Ry

     iteration # 13     ecut=    60.00 Ry     beta=0.70
     CG style diagonalization
     c_bands:  1 eigenvalues not converged
     ethr =  1.49E-12,  avg # of iterations =  6.0

     total cpu time spent up to now is       76.8 secs

     total energy              =    -188.85099305 Ry
     Harris-Foulkes estimate   =    -188.85099305 Ry
     estimated scf accuracy    <          2.2E-10 Ry

     iteration # 14     ecut=    60.00 Ry     beta=0.70
     CG style diagonalization
     ethr =  1.35E-12,  avg # of iterations =  5.6

     total cpu time spent up to now is       78.5 secs

     total energy              =    -188.85099305 Ry
     Harris-Foulkes estimate   =    -188.85099305 Ry
     estimated scf accuracy    <          6.5E-10 Ry

     iteration # 15     ecut=    60.00 Ry     beta=0.70
     CG style diagonalization
     ethr =  1.35E-12,  avg # of iterations =  4.6

     total cpu time spent up to now is       80.3 secs

     End of self-consistent calculation

          k = 0.0000 0.0000 0.0000 (  2413 PWs)   bands (ev):

   -48.0221 -19.9367 -19.9329 -19.9292 -11.6960   0.8367   0.9266   1.0238

          k = 0.0001-0.0004 0.2131 (  2402 PWs)   bands (ev):

   -48.0219 -19.9430 -19.9343 -19.9296 -11.6151   0.3886   0.7720   0.8822

          k = 0.0002-0.0007 0.4261 (  2406 PWs)   bands (ev):

   -48.0215 -19.9568 -19.9359 -19.9305 -11.4463  -0.5352   0.6449   0.7332

          k =-0.0002 0.0011-0.6392 (  2402 PWs)   bands (ev):

   -48.0213 -19.9637 -19.9367 -19.9309 -11.3580  -0.9266   0.5843   0.6633

          k =-0.0002 0.2393-0.1642 (  2394 PWs)   bands (ev):

   -48.0218 -19.9411 -19.9390 -19.9320 -11.5616   0.1408   0.6055   0.8249

          k =-0.0001 0.2390 0.0488 (  2403 PWs)   bands (ev):

   -48.0218 -19.9443 -19.9348 -19.9301 -11.5932   0.2526   0.7356   0.8711

          k = 0.0000 0.2386 0.2619 (  2409 PWs)   bands (ev):

   -48.0216 -19.9519 -19.9365 -19.9296 -11.5012  -0.1532   0.6063   0.7254

          k =-0.0004 0.2404-0.8034 (  2411 PWs)   bands (ev):

   -48.0213 -19.9583 -19.9404 -19.9310 -11.3729  -0.5613   0.2562   0.5832

          k =-0.0003 0.2400-0.5903 (  2393 PWs)   bands (ev):

   -48.0212 -19.9584 -19.9413 -19.9329 -11.3390  -0.6784   0.2560   0.4607

          k =-0.0003 0.2397-0.3773 (  2395 PWs)   bands (ev):

   -48.0215 -19.9508 -19.9397 -19.9334 -11.4358  -0.3741   0.4706   0.5618

          k =-0.0004 0.4786-0.3284 (  2386 PWs)   bands (ev):

   -48.0212 -19.9504 -19.9429 -19.9365 -11.3631  -0.6033   0.2685   0.5350

          k =-0.0003 0.4783-0.1154 (  2393 PWs)   bands (ev):

   -48.0214 -19.9515 -19.9410 -19.9341 -11.4052  -0.4492   0.4180   0.4761

          k =-0.0002 0.4779 0.0977 (  2405 PWs)   bands (ev):

   -48.0214 -19.9590 -19.9367 -19.9313 -11.4051  -0.6826   0.5804   0.6639

          k =-0.0006 0.4797-0.9676 (  2408 PWs)   bands (ev):

   -48.0213 -19.9619 -19.9379 -19.9310 -11.3633  -0.8120   0.5293   0.5850

          k =-0.0005 0.4793-0.7545 (  2396 PWs)   bands (ev):

   -48.0212 -19.9564 -19.9443 -19.9334 -11.3216  -0.5247  -0.0168   0.4226

          k =-0.0004 0.4790-0.5415 (  2387 PWs)   bands (ev):

   -48.0211 -19.9500 -19.9474 -19.9362 -11.3213  -0.5712   0.1809   0.2705

          k = 0.2502-0.1471-0.2183 (  2406 PWs)   bands (ev):

   -48.0216 -19.9469 -19.9367 -19.9342 -11.5021  -0.1069   0.6036   0.6350

          k = 0.2503-0.1474-0.0052 (  2392 PWs)   bands (ev):

   -48.0218 -19.9412 -19.9374 -19.9334 -11.5644  -0.0411   0.7716   0.8606

          k = 0.2504-0.1478 0.2078 (  2391 PWs)   bands (ev):

   -48.0217 -19.9459 -19.9387 -19.9325 -11.5127  -0.3355   0.7192   0.8309

          k = 0.2500-0.1460-0.8575 (  2393 PWs)   bands (ev):

   -48.0214 -19.9521 -19.9416 -19.9340 -11.3962  -0.4868   0.1600   0.6838

          k = 0.2501-0.1463-0.6444 (  2401 PWs)   bands (ev):

   -48.0212 -19.9576 -19.9402 -19.9355 -11.3304  -0.6006   0.0181   0.5348

          k = 0.2501-0.1467-0.4313 (  2400 PWs)   bands (ev):

   -48.0213 -19.9556 -19.9387 -19.9341 -11.3847  -0.5214   0.3572   0.5125

          k = 0.2500 0.0923-0.3825 (  2410 PWs)   bands (ev):

   -48.0214 -19.9521 -19.9411 -19.9321 -11.4221  -0.4296   0.2983   0.6885

          k = 0.2501 0.0919-0.1694 (  2389 PWs)   bands (ev):

   -48.0217 -19.9446 -19.9382 -19.9314 -11.5427  -0.1412   0.7451   0.8383

          k = 0.2502 0.0915 0.0436 (  2396 PWs)   bands (ev):

   -48.0218 -19.9400 -19.9370 -19.9336 -11.5791   0.1144   0.7013   0.8846

          k = 0.2498 0.0933-1.0217 (  2405 PWs)   bands (ev):

   -48.0216 -19.9472 -19.9366 -19.9344 -11.4969  -0.1425   0.5902   0.6425

          k = 0.2499 0.0930-0.8086 (  2396 PWs)   bands (ev):

   -48.0213 -19.9562 -19.9384 -19.9348 -11.3743  -0.5594   0.3136   0.5099

          k = 0.2500 0.0926-0.5956 (  2403 PWs)   bands (ev):

   -48.0212 -19.9580 -19.9407 -19.9342 -11.3357  -0.6289   0.0879   0.5364

          k = 0.2498 0.3316-0.5467 (  2395 PWs)   bands (ev):

   -48.0212 -19.9509 -19.9464 -19.9363 -11.3257  -0.3809  -0.1508   0.3762

          k = 0.2499 0.3312-0.3337 (  2393 PWs)   bands (ev):

   -48.0214 -19.9524 -19.9415 -19.9342 -11.3907  -0.6284   0.3293   0.6413

          k = 0.2500 0.3308-0.1206 (  2394 PWs)   bands (ev):

   -48.0215 -19.9508 -19.9400 -19.9318 -11.4533  -0.5153   0.5634   0.7527

          k = 0.2496 0.3326-1.1859 (  2407 PWs)   bands (ev):

   -48.0215 -19.9508 -19.9397 -19.9321 -11.4520  -0.3374   0.4240   0.6856

          k = 0.2497 0.3323-0.9728 (  2395 PWs)   bands (ev):

   -48.0213 -19.9553 -19.9388 -19.9341 -11.3876  -0.5072   0.3720   0.5045

          k = 0.2498 0.3319-0.7598 (  2404 PWs)   bands (ev):

   -48.0211 -19.9553 -19.9426 -19.9357 -11.3238  -0.5103   0.0936   0.3064

          k = 0.2506-0.6257 0.1101 (  2394 PWs)   bands (ev):

   -48.0212 -19.9509 -19.9447 -19.9377 -11.3284  -0.3821  -0.1561   0.3937

          k = 0.2507-0.6260 0.3232 (  2391 PWs)   bands (ev):

   -48.0212 -19.9480 -19.9431 -19.9419 -11.3309  -0.4354  -0.1914   0.5041

          k = 0.2507-0.6264 0.5363 (  2393 PWs)   bands (ev):

   -48.0212 -19.9502 -19.9429 -19.9394 -11.3372  -0.5267  -0.0599   0.5208

          k = 0.2504-0.6246-0.5290 (  2397 PWs)   bands (ev):

   -48.0212 -19.9524 -19.9453 -19.9347 -11.3412  -0.4605  -0.0676   0.4961

          k = 0.2504-0.6250-0.3160 (  2403 PWs)   bands (ev):

   -48.0212 -19.9582 -19.9403 -19.9342 -11.3384  -0.6342   0.1128   0.5383

          k = 0.2505-0.6253-0.1029 (  2400 PWs)   bands (ev):

   -48.0212 -19.9578 -19.9399 -19.9355 -11.3320  -0.6118   0.0338   0.5439

          k = 0.2504-0.3864-0.0541 (  2398 PWs)   bands (ev):

   -48.0214 -19.9513 -19.9401 -19.9336 -11.4264  -0.4289   0.2928   0.7101

          k = 0.2505-0.3867 0.1590 (  2396 PWs)   bands (ev):

   -48.0215 -19.9502 -19.9407 -19.9346 -11.4204  -0.6056   0.4422   0.7022

          k = 0.2505-0.3871 0.3720 (  2399 PWs)   bands (ev):

   -48.0213 -19.9500 -19.9421 -19.9380 -11.3667  -0.6158   0.1685   0.5887

          k = 0.2502-0.3853-0.6932 (  2403 PWs)   bands (ev):

   -48.0212 -19.9499 -19.9452 -19.9390 -11.3183  -0.2851  -0.2084   0.2687

          k = 0.2502-0.3857-0.4802 (  2402 PWs)   bands (ev):

   -48.0211 -19.9554 -19.9427 -19.9356 -11.3238  -0.5114   0.0792   0.3222

          k = 0.2503-0.3860-0.2671 (  2393 PWs)   bands (ev):

   -48.0213 -19.9559 -19.9385 -19.9347 -11.3782  -0.5425   0.3356   0.5002

          k =-0.5004 0.2941 0.4366 (  2402 PWs)   bands (ev):

   -48.0211 -19.9548 -19.9404 -19.9377 -11.3273  -0.6918   0.3298   0.3651

          k =-0.5004 0.2938 0.6496 (  2388 PWs)   bands (ev):

   -48.0212 -19.9511 -19.9424 -19.9382 -11.3464  -0.5565   0.1443   0.4485

          k =-0.5003 0.2934 0.8627 (  2390 PWs)   bands (ev):

   -48.0214 -19.9517 -19.9421 -19.9351 -11.3830  -0.7705   0.4276   0.6283

          k =-0.5007 0.2952-0.2026 (  2392 PWs)   bands (ev):

   -48.0215 -19.9558 -19.9386 -19.9333 -11.4006  -0.9751   0.6996   0.7837

          k =-0.5006 0.5334 0.2724 (  2390 PWs)   bands (ev):

   -48.0211 -19.9529 -19.9422 -19.9394 -11.3134  -0.3855  -0.0604   0.2134

          k =-0.5005 0.5331 0.4854 (  2387 PWs)   bands (ev):

   -48.0212 -19.9511 -19.9450 -19.9361 -11.3404  -0.5386   0.1006   0.4268

          k =-0.5005 0.5327 0.6985 (  2394 PWs)   bands (ev):

   -48.0214 -19.9475 -19.9417 -19.9388 -11.3903  -0.4949   0.2003   0.5727

          k =-0.5008 0.5345-0.3668 (  2387 PWs)   bands (ev):

   -48.0215 -19.9475 -19.9401 -19.9387 -11.4127  -0.5633   0.2232   0.7772

          k =-0.5008 0.5341-0.1537 (  2390 PWs)   bands (ev):

   -48.0214 -19.9504 -19.9422 -19.9360 -11.3858  -0.7072   0.3783   0.6154

          k =-0.5007 0.5338 0.0593 (  2400 PWs)   bands (ev):

   -48.0212 -19.9494 -19.9466 -19.9368 -11.3364  -0.5002  -0.0287   0.4450

          k =-0.5008 0.7727 0.1081 (  2396 PWs)   bands (ev):

   -48.0211 -19.9542 -19.9411 -19.9383 -11.3219  -0.6102   0.2229   0.2985

          k =-0.5007 0.7724 0.3212 (  2399 PWs)   bands (ev):

   -48.0212 -19.9504 -19.9472 -19.9353 -11.3337  -0.5022  -0.0050   0.4257

          k =-0.5006 0.7720 0.5343 (  2398 PWs)   bands (ev):

   -48.0214 -19.9551 -19.9423 -19.9326 -11.3713  -0.8285   0.4697   0.6062

          k =-0.5010 0.7738-0.5310 (  2398 PWs)   bands (ev):

   -48.0214 -19.9552 -19.9388 -19.9337 -11.3979  -0.8392   0.5178   0.7698

          k =-0.5009 0.7734-0.3180 (  2389 PWs)   bands (ev):

   -48.0214 -19.9491 -19.9420 -19.9373 -11.3874  -0.5514   0.2483   0.5758

          k =-0.5009 0.7731-0.1049 (  2399 PWs)   bands (ev):

   -48.0212 -19.9515 -19.9405 -19.9392 -11.3491  -0.5770   0.2694   0.3817

!    total energy              =    -188.85099305 Ry
     Harris-Foulkes estimate   =    -188.85099305 Ry
     estimated scf accuracy    <          2.8E-11 Ry

     total all-electron energy =     -1248.137985 Ry

     The total energy is the sum of the following terms:

     one-electron contribution =     -81.56268920 Ry
     hartree contribution      =      42.46250121 Ry
     xc contribution           =     -24.67450526 Ry
     ewald contribution        =     -68.45651207 Ry
     one-center paw contrib.   =     -56.61978774 Ry

     convergence has been achieved in  15 iterations

     Forces acting on atoms (Ry/au):

     atom    1 type  1   force =     0.00000326   -0.00000174   -0.00000509
     atom    2 type  2   force =    -0.00000326    0.00000174    0.00000509

     Total force =     0.000009     Total SCF correction =     0.000000


     entering subroutine stress ...

          total   stress  (Ry/bohr**3)                   (kbar)     P=    3.12
  -0.00002024   0.00000683  -0.00000461         -2.98      1.00     -0.68
   0.00000683   0.00003391   0.00002194          1.00      4.99      3.23
  -0.00000461   0.00002194   0.00004991         -0.68      3.23      7.34


     number of scf cycles    =   3
     number of bfgs steps    =   2

     enthalpy old            =    -188.8509078715 Ry
     enthalpy new            =    -188.8509930540 Ry

     CASE: enthalpy_new < enthalpy_old

     new trust radius        =       0.0148184085 bohr
     new conv_thr            =            1.0E-10 Ry

     new unit-cell volume =    309.11368 a.u.^3 (    45.80592 Ang^3 )

CELL_PARAMETERS (alat=  7.77582279)
   0.997907198   0.001033966  -0.000697687
   0.492788098   0.839483900   0.002406575
   0.997856105   0.541163168   0.786383031

ATOMIC_POSITIONS (crystal)
Na       0.792004069   0.010033465   0.016339792
Cl       0.792053993   0.010033656   0.516313583



     Writing output data file NaCl_pegs+pwscf.save
     NEW-OLD atomic charge density approx. for the potential
     NEW k-points:
        k(    1) = (   0.0000000   0.0000000   0.0000000), wk =   0.0166667
        k(    2) = (   0.0001491  -0.0006959   0.2122305), wk =   0.0333333
        k(    3) = (   0.0002982  -0.0013919   0.4244611), wk =   0.0333333
        k(    4) = (  -0.0004473   0.0020878  -0.6366916), wk =   0.0166667
        k(    5) = (  -0.0003622   0.2389243  -0.1639603), wk =   0.0333333
        k(    6) = (  -0.0002131   0.2382283   0.0482702), wk =   0.0333333
        k(    7) = (  -0.0000640   0.2375324   0.2605008), wk =   0.0333333
        k(    8) = (  -0.0008095   0.2410121  -0.8006519), wk =   0.0333333
        k(    9) = (  -0.0006604   0.2403161  -0.5884214), wk =   0.0333333
        k(   10) = (  -0.0005113   0.2396202  -0.3761908), wk =   0.0333333
        k(   11) = (  -0.0007244   0.4778485  -0.3279206), wk =   0.0333333
        k(   12) = (  -0.0005753   0.4771526  -0.1156900), wk =   0.0333333
        k(   13) = (  -0.0004262   0.4764566   0.0965405), wk =   0.0333333
        k(   14) = (  -0.0011717   0.4799363  -0.9646122), wk =   0.0333333
        k(   15) = (  -0.0010226   0.4792404  -0.7523817), wk =   0.0333333
        k(   16) = (  -0.0008735   0.4785444  -0.5401511), wk =   0.0333333
        k(   17) = (   0.2505242  -0.1464386  -0.2171206), wk =   0.0333333
        k(   18) = (   0.2506733  -0.1471345  -0.0048901), wk =   0.0333333
        k(   19) = (   0.2508224  -0.1478305   0.2073405), wk =   0.0333333
        k(   20) = (   0.2500769  -0.1443508  -0.8538122), wk =   0.0333333
        k(   21) = (   0.2502260  -0.1450467  -0.6415817), wk =   0.0333333
        k(   22) = (   0.2503751  -0.1457427  -0.4293511), wk =   0.0333333
        k(   23) = (   0.2501620   0.0924857  -0.3810809), wk =   0.0333333
        k(   24) = (   0.2503111   0.0917897  -0.1688504), wk =   0.0333333
        k(   25) = (   0.2504602   0.0910938   0.0433802), wk =   0.0333333
        k(   26) = (   0.2497147   0.0945735  -1.0177725), wk =   0.0333333
        k(   27) = (   0.2498638   0.0938775  -0.8055420), wk =   0.0333333
        k(   28) = (   0.2500129   0.0931816  -0.5933114), wk =   0.0333333
        k(   29) = (   0.2497998   0.3314099  -0.5450412), wk =   0.0333333
        k(   30) = (   0.2499489   0.3307140  -0.3328106), wk =   0.0333333
        k(   31) = (   0.2500981   0.3300181  -0.1205801), wk =   0.0333333
        k(   32) = (   0.2493525   0.3334977  -1.1817328), wk =   0.0333333
        k(   33) = (   0.2495016   0.3328018  -0.9695023), wk =   0.0333333
        k(   34) = (   0.2496507   0.3321059  -0.7572717), wk =   0.0333333
        k(   35) = (   0.2512486  -0.6242871   0.1108000), wk =   0.0333333
        k(   36) = (   0.2513977  -0.6249830   0.3230305), wk =   0.0333333
        k(   37) = (   0.2515468  -0.6256790   0.5352611), wk =   0.0333333
        k(   38) = (   0.2508013  -0.6221993  -0.5258916), wk =   0.0333333
        k(   39) = (   0.2509504  -0.6228952  -0.3136611), wk =   0.0333333
        k(   40) = (   0.2510995  -0.6235912  -0.1014306), wk =   0.0333333
        k(   41) = (   0.2508864  -0.3853628  -0.0531603), wk =   0.0333333
        k(   42) = (   0.2510355  -0.3860588   0.1590702), wk =   0.0333333
        k(   43) = (   0.2511846  -0.3867547   0.3713008), wk =   0.0333333
        k(   44) = (   0.2504391  -0.3832750  -0.6898519), wk =   0.0333333
        k(   45) = (   0.2505882  -0.3839710  -0.4776214), wk =   0.0333333
        k(   46) = (   0.2507373  -0.3846669  -0.2653909), wk =   0.0333333
        k(   47) = (  -0.5010485   0.2928772   0.4342412), wk =   0.0166667
        k(   48) = (  -0.5008994   0.2921813   0.6464717), wk =   0.0333333
        k(   49) = (  -0.5007503   0.2914853   0.8587023), wk =   0.0333333
        k(   50) = (  -0.5014958   0.2949650  -0.2024504), wk =   0.0166667
        k(   51) = (  -0.5014106   0.5318014   0.2702809), wk =   0.0333333
        k(   52) = (  -0.5012615   0.5311055   0.4825115), wk =   0.0333333
        k(   53) = (  -0.5011124   0.5304096   0.6947420), wk =   0.0333333
        k(   54) = (  -0.5018580   0.5338892  -0.3664107), wk =   0.0333333
        k(   55) = (  -0.5017089   0.5331933  -0.1541802), wk =   0.0333333
        k(   56) = (  -0.5015597   0.5324974   0.0580504), wk =   0.0333333
        k(   57) = (  -0.5017728   0.7707257   0.1063206), wk =   0.0333333
        k(   58) = (  -0.5016237   0.7700298   0.3185512), wk =   0.0333333
        k(   59) = (  -0.5014746   0.7693338   0.5307817), wk =   0.0333333
        k(   60) = (  -0.5022201   0.7728135  -0.5303710), wk =   0.0333333
        k(   61) = (  -0.5020710   0.7721176  -0.3181405), wk =   0.0333333
        k(   62) = (  -0.5019219   0.7714216  -0.1059099), wk =   0.0333333

     Check: negative/imaginary core charge=   -0.000005    0.000000
     extrapolated charge   16.08273, renormalised to   16.00000

     total cpu time spent up to now is       81.2 secs

     Self-consistent Calculation

     iteration #  1     ecut=    60.00 Ry     beta=0.70
     CG style diagonalization
     ethr =  1.00E-06,  avg # of iterations =  4.3

     total cpu time spent up to now is       83.1 secs

     total energy              =    -188.85072262 Ry
     Harris-Foulkes estimate   =    -188.46528248 Ry
     estimated scf accuracy    <       0.00077436 Ry

     iteration #  2     ecut=    60.00 Ry     beta=0.70
     CG style diagonalization
     ethr =  4.84E-06,  avg # of iterations =  4.3

     total cpu time spent up to now is       85.0 secs

     total energy              =    -188.85098441 Ry
     Harris-Foulkes estimate   =    -188.85125409 Ry
     estimated scf accuracy    <       0.00039278 Ry

     iteration #  3     ecut=    60.00 Ry     beta=0.70
     CG style diagonalization
     ethr =  2.45E-06,  avg # of iterations =  4.0

     total cpu time spent up to now is       86.3 secs

     total energy              =    -188.85107163 Ry
     Harris-Foulkes estimate   =    -188.85111604 Ry
     estimated scf accuracy    <       0.00006049 Ry

     iteration #  4     ecut=    60.00 Ry     beta=0.70
     CG style diagonalization
     ethr =  3.78E-07,  avg # of iterations =  3.9

     total cpu time spent up to now is       87.6 secs

     total energy              =    -188.85108863 Ry
     Harris-Foulkes estimate   =    -188.85109186 Ry
     estimated scf accuracy    <       0.00000553 Ry

     iteration #  5     ecut=    60.00 Ry     beta=0.70
     CG style diagonalization
     ethr =  3.46E-08,  avg # of iterations =  4.8

     total cpu time spent up to now is       89.3 secs

     total energy              =    -188.85109480 Ry
     Harris-Foulkes estimate   =    -188.85109800 Ry
     estimated scf accuracy    <       0.00000542 Ry

     iteration #  6     ecut=    60.00 Ry     beta=0.70
     CG style diagonalization
     ethr =  3.39E-08,  avg # of iterations =  4.0

     total cpu time spent up to now is       90.7 secs

     total energy              =    -188.85109697 Ry
     Harris-Foulkes estimate   =    -188.85109712 Ry
     estimated scf accuracy    <       0.00000022 Ry

     iteration #  7     ecut=    60.00 Ry     beta=0.70
     CG style diagonalization
     c_bands:  1 eigenvalues not converged
     c_bands:  1 eigenvalues not converged
     c_bands:  1 eigenvalues not converged
     ethr =  1.38E-09,  avg # of iterations =  6.1

     total cpu time spent up to now is       92.6 secs

     total energy              =    -188.85109961 Ry
     Harris-Foulkes estimate   =    -188.85109986 Ry
     estimated scf accuracy    <       0.00000062 Ry

     iteration #  8     ecut=    60.00 Ry     beta=0.70
     CG style diagonalization
     c_bands:  1 eigenvalues not converged
     ethr =  1.38E-09,  avg # of iterations =  4.7

     total cpu time spent up to now is       94.7 secs

     total energy              =    -188.85110003 Ry
     Harris-Foulkes estimate   =    -188.85110008 Ry
     estimated scf accuracy    <       0.00000020 Ry

     iteration #  9     ecut=    60.00 Ry     beta=0.70
     CG style diagonalization
     ethr =  1.28E-09,  avg # of iterations =  4.4

     total cpu time spent up to now is       96.1 secs

     total energy              =    -188.85110017 Ry
     Harris-Foulkes estimate   =    -188.85110021 Ry
     estimated scf accuracy    <       0.00000007 Ry

     iteration # 10     ecut=    60.00 Ry     beta=0.70
     CG style diagonalization
     ethr =  4.28E-10,  avg # of iterations =  4.8

     total cpu time spent up to now is       97.6 secs

     total energy              =    -188.85110023 Ry
     Harris-Foulkes estimate   =    -188.85110027 Ry
     estimated scf accuracy    <       0.00000007 Ry

     iteration # 11     ecut=    60.00 Ry     beta=0.70
     CG style diagonalization
     ethr =  4.28E-10,  avg # of iterations =  4.1

     total cpu time spent up to now is       99.0 secs

     total energy              =    -188.85110024 Ry
     Harris-Foulkes estimate   =    -188.85110025 Ry
     estimated scf accuracy    <       0.00000001 Ry

     iteration # 12     ecut=    60.00 Ry     beta=0.70
     CG style diagonalization
     ethr =  7.95E-11,  avg # of iterations =  4.5

     total cpu time spent up to now is      100.5 secs

     total energy              =    -188.85110026 Ry
     Harris-Foulkes estimate   =    -188.85110026 Ry
     estimated scf accuracy    <          3.2E-09 Ry

     iteration # 13     ecut=    60.00 Ry     beta=0.70
     CG style diagonalization
     ethr =  2.01E-11,  avg # of iterations =  5.4

     total cpu time spent up to now is      102.7 secs

     total energy              =    -188.85110027 Ry
     Harris-Foulkes estimate   =    -188.85110027 Ry
     estimated scf accuracy    <          3.1E-09 Ry

     iteration # 14     ecut=    60.00 Ry     beta=0.70
     CG style diagonalization
     ethr =  1.96E-11,  avg # of iterations =  4.1

     total cpu time spent up to now is      104.1 secs

     total energy              =    -188.85110027 Ry
     Harris-Foulkes estimate   =    -188.85110027 Ry
     estimated scf accuracy    <          4.1E-09 Ry

     iteration # 15     ecut=    60.00 Ry     beta=0.70
     CG style diagonalization
     ethr =  1.96E-11,  avg # of iterations =  3.8

     total cpu time spent up to now is      105.4 secs

     total energy              =    -188.85110027 Ry
     Harris-Foulkes estimate   =    -188.85110027 Ry
     estimated scf accuracy    <          7.7E-10 Ry

     iteration # 16     ecut=    60.00 Ry     beta=0.70
     CG style diagonalization
     ethr =  4.81E-12,  avg # of iterations =  5.4

     total cpu time spent up to now is      107.1 secs

     total energy              =    -188.85110027 Ry
     Harris-Foulkes estimate   =    -188.85110027 Ry
     estimated scf accuracy    <          1.6E-10 Ry

     iteration # 17     ecut=    60.00 Ry     beta=0.70
     CG style diagonalization
     ethr =  9.85E-13,  avg # of iterations =  6.0

     total cpu time spent up to now is      109.0 secs

[...]

     total cpu time spent up to now is      395.4 secs

     total energy              =    -188.85260775 Ry
     Harris-Foulkes estimate   =    -188.85138542 Ry
     estimated scf accuracy    <       0.00000836 Ry

     iteration # 17     ecut=    60.00 Ry     beta=0.70
     CG style diagonalization
     c_bands:  1 eigenvalues not converged
     c_bands:  1 eigenvalues not converged
     c_bands:  1 eigenvalues not converged
     c_bands:  1 eigenvalues not converged
     c_bands:  1 eigenvalues not converged
     c_bands:  1 eigenvalues not converged
     c_bands:  1 eigenvalues not converged
     c_bands:  1 eigenvalues not converged
     c_bands:  1 eigenvalues not converged
     c_bands:  1 eigenvalues not converged
     c_bands:  1 eigenvalues not converged
     ethr =  1.97E-08,  avg # of iterations =  8.0

     total cpu time spent up to now is      398.5 secs

     total energy              =    -188.84965379 Ry
     Harris-Foulkes estimate   =    -188.85423074 Ry
     estimated scf accuracy    <       0.00838137 Ry

     iteration # 18     ecut=    60.00 Ry     beta=0.70
     CG style diagonalization
     c_bands:  1 eigenvalues not converged
     c_bands:  1 eigenvalues not converged
     c_bands:  1 eigenvalues not converged
     c_bands:  1 eigenvalues not converged
     c_bands:  1 eigenvalues not converged
     c_bands:  1 eigenvalues not converged
     c_bands:  1 eigenvalues not converged
     c_bands:  1 eigenvalues not converged
     c_bands:  1 eigenvalues not converged
     c_bands:  1 eigenvalues not converged
     c_bands:  1 eigenvalues not converged
     c_bands:  1 eigenvalues not converged
     c_bands:  1 eigenvalues not converged
     c_bands:  1 eigenvalues not converged
     c_bands:  1 eigenvalues not converged
     c_bands:  1 eigenvalues not converged
     c_bands:  1 eigenvalues not converged
     c_bands:  1 eigenvalues not converged
     ethr =  1.97E-08,  avg # of iterations =  8.7

     total cpu time spent up to now is      401.2 secs

     total energy              =    -188.85137465 Ry
     Harris-Foulkes estimate   =    -188.85140163 Ry
     estimated scf accuracy    <       0.00002887 Ry

     iteration # 19     ecut=    60.00 Ry     beta=0.70
     CG style diagonalization
     ethr =  1.97E-08,  avg # of iterations =  4.9

     total cpu time spent up to now is      402.7 secs

     total energy              =    -188.85138053 Ry
     Harris-Foulkes estimate   =    -188.85138075 Ry
     estimated scf accuracy    <       0.00000160 Ry

     iteration # 20     ecut=    60.00 Ry     beta=0.70
     CG style diagonalization
     ethr =  1.00E-08,  avg # of iterations =  4.1

     total cpu time spent up to now is      404.3 secs

     total energy              =    -188.85138280 Ry
     Harris-Foulkes estimate   =    -188.85138174 Ry
     estimated scf accuracy    <       0.00000064 Ry

     iteration # 21     ecut=    60.00 Ry     beta=0.70
     CG style diagonalization
     ethr =  3.97E-09,  avg # of iterations =  4.1

     total cpu time spent up to now is      405.7 secs

     total energy              =    -188.85138366 Ry
     Harris-Foulkes estimate   =    -188.85138312 Ry
     estimated scf accuracy    <       0.00000182 Ry

     iteration # 22     ecut=    60.00 Ry     beta=0.70
     CG style diagonalization
     ethr =  3.97E-09,  avg # of iterations =  3.9

     total cpu time spent up to now is      406.9 secs

     total energy              =    -188.85138277 Ry
     Harris-Foulkes estimate   =    -188.85138385 Ry
     estimated scf accuracy    <       0.00000315 Ry

     iteration # 23     ecut=    60.00 Ry     beta=0.70
     CG style diagonalization
     ethr =  3.97E-09,  avg # of iterations =  4.0

     total cpu time spent up to now is      408.3 secs

     total energy              =    -188.85138222 Ry
     Harris-Foulkes estimate   =    -188.85138308 Ry
     estimated scf accuracy    <       0.00000037 Ry

     iteration # 24     ecut=    60.00 Ry     beta=0.70
     CG style diagonalization
     ethr =  2.34E-09,  avg # of iterations =  5.3

     total cpu time spent up to now is      410.5 secs

     total energy              =    -188.85138212 Ry
     Harris-Foulkes estimate   =    -188.85138320 Ry
     estimated scf accuracy    <       0.00000154 Ry

     iteration # 25     ecut=    60.00 Ry     beta=0.70
     CG style diagonalization
     ethr =  2.34E-09,  avg # of iterations =  3.8

     total cpu time spent up to now is      412.7 secs

     total energy              =    -188.85138229 Ry
     Harris-Foulkes estimate   =    -188.85138225 Ry
     estimated scf accuracy    <       0.00000051 Ry

     iteration # 26     ecut=    60.00 Ry     beta=0.70
     CG style diagonalization
     ethr =  2.34E-09,  avg # of iterations =  3.4

     total cpu time spent up to now is      413.8 secs

     total energy              =    -188.85138222 Ry
     Harris-Foulkes estimate   =    -188.85138235 Ry
     estimated scf accuracy    <       0.00000013 Ry

     iteration # 27     ecut=    60.00 Ry     beta=0.70
     CG style diagonalization
     ethr =  8.33E-10,  avg # of iterations =  3.9

     total cpu time spent up to now is      415.1 secs

     total energy              =    -188.85138236 Ry
     Harris-Foulkes estimate   =    -188.85138226 Ry
     estimated scf accuracy    <       0.00000006 Ry

     iteration # 28     ecut=    60.00 Ry     beta=0.70
     CG style diagonalization
     ethr =  4.01E-10,  avg # of iterations =  4.2

     total cpu time spent up to now is      416.5 secs

     total energy              =    -188.85138242 Ry
     Harris-Foulkes estimate   =    -188.85138239 Ry
     estimated scf accuracy    <       0.00000003 Ry

     iteration # 29     ecut=    60.00 Ry     beta=0.70
     CG style diagonalization
     ethr =  2.18E-10,  avg # of iterations =  4.3

     total cpu time spent up to now is      418.3 secs

     total energy              =    -188.85138242 Ry
     Harris-Foulkes estimate   =    -188.85138244 Ry
     estimated scf accuracy    <          2.7E-09 Ry

     iteration # 30     ecut=    60.00 Ry     beta=0.70
     CG style diagonalization
     c_bands:  1 eigenvalues not converged
     ethr =  1.67E-11,  avg # of iterations =  7.7

     total cpu time spent up to now is      420.6 secs

     total energy              =    -188.85138240 Ry
     Harris-Foulkes estimate   =    -188.85138244 Ry
     estimated scf accuracy    <       0.00000001 Ry

     iteration # 31     ecut=    60.00 Ry     beta=0.70
     CG style diagonalization
     ethr =  1.67E-11,  avg # of iterations =  5.5

     total cpu time spent up to now is      422.3 secs

     total energy              =    -188.85138240 Ry
     Harris-Foulkes estimate   =    -188.85138241 Ry
     estimated scf accuracy    <          1.2E-09 Ry

     iteration # 32     ecut=    60.00 Ry     beta=0.70
     CG style diagonalization
     ethr =  7.63E-12,  avg # of iterations =  5.0

     total cpu time spent up to now is      423.9 secs

     total energy              =    -188.85138241 Ry
     Harris-Foulkes estimate   =    -188.85138241 Ry
     estimated scf accuracy    <          4.1E-10 Ry

     iteration # 33     ecut=    60.00 Ry     beta=0.70
     CG style diagonalization
     ethr =  2.59E-12,  avg # of iterations =  5.0

     total cpu time spent up to now is      425.6 secs

     total energy              =    -188.85138241 Ry
     Harris-Foulkes estimate   =    -188.85138241 Ry
     estimated scf accuracy    <          6.7E-10 Ry

     iteration # 34     ecut=    60.00 Ry     beta=0.70
     CG style diagonalization
     ethr =  2.59E-12,  avg # of iterations =  4.4

     total cpu time spent up to now is      427.1 secs

     End of self-consistent calculation

          k = 0.0000 0.0000 0.0000 (  2439 PWs)   bands (ev):

   -48.1416 -20.0523 -20.0522 -20.0521 -11.7688   0.8241   0.8260   0.8262

          k = 0.0006-0.0029 0.2086 (  2464 PWs)   bands (ev):

   -48.1414 -20.0586 -20.0527 -20.0526 -11.6955   0.2529   0.7598   0.7615

          k = 0.0013-0.0058 0.4171 (  2445 PWs)   bands (ev):

   -48.1411 -20.0713 -20.0537 -20.0536 -11.5430  -0.6346   0.6364   0.6378

          k =-0.0019 0.0088-0.6257 (  2452 PWs)   bands (ev):

   -48.1409 -20.0775 -20.0541 -20.0540 -11.4635  -1.0096   0.5772   0.5787

          k =-0.0015 0.2383-0.1636 (  2449 PWs)   bands (ev):

   -48.1413 -20.0599 -20.0547 -20.0547 -11.6390   0.0584   0.6129   0.6138

          k =-0.0009 0.2354 0.0449 (  2457 PWs)   bands (ev):

   -48.1414 -20.0603 -20.0531 -20.0527 -11.6745   0.1212   0.7275   0.7475

          k =-0.0003 0.2325 0.2535 (  2453 PWs)   bands (ev):

   -48.1412 -20.0651 -20.0556 -20.0528 -11.5960  -0.2385   0.4929   0.7078

          k =-0.0034 0.2471-0.7894 (  2442 PWs)   bands (ev):

   -48.1409 -20.0709 -20.0592 -20.0541 -11.4779  -0.6266   0.1493   0.5757

          k =-0.0028 0.2442-0.5808 (  2439 PWs)   bands (ev):

   -48.1408 -20.0731 -20.0586 -20.0557 -11.4399  -0.7797   0.1663   0.4686

          k =-0.0022 0.2413-0.3722 (  2442 PWs)   bands (ev):

   -48.1410 -20.0678 -20.0562 -20.0560 -11.5225  -0.4795   0.4139   0.4863

          k =-0.0031 0.4767-0.3273 (  2446 PWs)   bands (ev):

   -48.1408 -20.0688 -20.0587 -20.0587 -11.4471  -0.6715   0.3051   0.3062

          k =-0.0024 0.4738-0.1187 (  2443 PWs)   bands (ev):

   -48.1409 -20.0686 -20.0574 -20.0566 -11.4932  -0.5489   0.3224   0.4387

          k =-0.0018 0.4708 0.0899 (  2446 PWs)   bands (ev):

   -48.1410 -20.0736 -20.0543 -20.0541 -11.5037  -0.7850   0.5751   0.5791

          k =-0.0050 0.4855-0.9530 (  2442 PWs)   bands (ev):

   -48.1409 -20.0754 -20.0556 -20.0541 -11.4690  -0.8920   0.4428   0.5768

          k =-0.0044 0.4825-0.7444 (  2434 PWs)   bands (ev):

   -48.1408 -20.0705 -20.0621 -20.0562 -11.4234  -0.6243  -0.1091   0.4345

          k =-0.0037 0.4796-0.5359 (  2436 PWs)   bands (ev):

   -48.1407 -20.0685 -20.0623 -20.0584 -11.4120  -0.6461   0.0005   0.3031

          k = 0.2554-0.1436-0.2113 (  2429 PWs)   bands (ev):

   -48.1411 -20.0629 -20.0558 -20.0557 -11.5838  -0.1883   0.5236   0.5258

          k = 0.2560-0.1465-0.0027 (  2455 PWs)   bands (ev):

   -48.1413 -20.0629 -20.0538 -20.0532 -11.6340  -0.0856   0.6632   0.6862

          k = 0.2567-0.1494 0.2059 (  2455 PWs)   bands (ev):

   -48.1412 -20.0671 -20.0547 -20.0529 -11.5829  -0.3699   0.5661   0.6908

          k = 0.2535-0.1348-0.8370 (  2437 PWs)   bands (ev):

   -48.1409 -20.0698 -20.0602 -20.0541 -11.4792  -0.5594   0.0768   0.5756

          k = 0.2541-0.1377-0.6284 (  2432 PWs)   bands (ev):

   -48.1408 -20.0712 -20.0612 -20.0560 -11.4265  -0.6710  -0.0396   0.4414

          k = 0.2548-0.1407-0.4198 (  2440 PWs)   bands (ev):

   -48.1409 -20.0689 -20.0580 -20.0569 -11.4801  -0.5750   0.2776   0.4169

          k = 0.2538 0.0948-0.3749 (  2441 PWs)   bands (ev):

   -48.1410 -20.0688 -20.0588 -20.0538 -11.5090  -0.5031   0.2064   0.6048

          k = 0.2545 0.0918-0.1663 (  2462 PWs)   bands (ev):

   -48.1412 -20.0645 -20.0540 -20.0531 -11.6167  -0.2001   0.6378   0.6985

          k = 0.2551 0.0889 0.0422 (  2458 PWs)   bands (ev):

   -48.1413 -20.0609 -20.0543 -20.0532 -11.6504   0.0461   0.6295   0.7089

          k = 0.2519 0.1035-1.0006 (  2454 PWs)   bands (ev):

   -48.1411 -20.0637 -20.0560 -20.0553 -11.5781  -0.2232   0.5013   0.5396

          k = 0.2526 0.1006-0.7921 (  2444 PWs)   bands (ev):

   -48.1409 -20.0702 -20.0582 -20.0564 -11.4689  -0.6296   0.2328   0.4356

          k = 0.2532 0.0977-0.5835 (  2443 PWs)   bands (ev):

   -48.1408 -20.0720 -20.0604 -20.0556 -11.4333  -0.7042   0.0205   0.4670

          k = 0.2523 0.3331-0.5385 (  2442 PWs)   bands (ev):

   -48.1407 -20.0676 -20.0638 -20.0580 -11.4151  -0.4524  -0.2352   0.2952

          k = 0.2529 0.3302-0.3300 (  2443 PWs)   bands (ev):

   -48.1409 -20.0709 -20.0581 -20.0556 -11.4707  -0.6618   0.2406   0.4760

          k = 0.2536 0.3273-0.1214 (  2450 PWs)   bands (ev):

   -48.1410 -20.0696 -20.0561 -20.0537 -11.5316  -0.5545   0.4418   0.6202

          k = 0.2504 0.3419-1.1643 (  2450 PWs)   bands (ev):

   -48.1410 -20.0672 -20.0576 -20.0540 -11.5378  -0.4129   0.3299   0.6007

          k = 0.2510 0.3389-0.9557 (  2439 PWs)   bands (ev):

   -48.1409 -20.0685 -20.0580 -20.0569 -11.4829  -0.5599   0.2889   0.4113

          k = 0.2517 0.3360-0.7471 (  2443 PWs)   bands (ev):

   -48.1407 -20.0684 -20.0614 -20.0589 -11.4212  -0.5677  -0.0029   0.2444

          k = 0.2585-0.6203 0.1160 (  2444 PWs)   bands (ev):

   -48.1407 -20.0676 -20.0638 -20.0579 -11.4149  -0.4522  -0.2350   0.2941

          k = 0.2591-0.6232 0.3246 (  2445 PWs)   bands (ev):

   -48.1407 -20.0669 -20.0646 -20.0582 -11.4091  -0.4962  -0.2167   0.3009

          k = 0.2597-0.6261 0.5332 (  2441 PWs)   bands (ev):

   -48.1407 -20.0686 -20.0626 -20.0579 -11.4171  -0.5697  -0.1055   0.3242

          k = 0.2566-0.6115-0.5097 (  2450 PWs)   bands (ev):

   -48.1408 -20.0690 -20.0628 -20.0563 -11.4309  -0.5315  -0.1538   0.4168

          k = 0.2572-0.6144-0.3011 (  2438 PWs)   bands (ev):

   -48.1408 -20.0720 -20.0601 -20.0556 -11.4363  -0.7089   0.0451   0.4691

          k = 0.2578-0.6173-0.0925 (  2437 PWs)   bands (ev):

   -48.1408 -20.0715 -20.0610 -20.0558 -11.4284  -0.6846  -0.0223   0.4527

          k = 0.2569-0.3819-0.0476 (  2442 PWs)   bands (ev):

   -48.1410 -20.0689 -20.0588 -20.0538 -11.5087  -0.5033   0.2069   0.6034

          k = 0.2576-0.3848 0.1610 (  2445 PWs)   bands (ev):

   -48.1409 -20.0709 -20.0572 -20.0548 -11.4932  -0.6371   0.3269   0.5342

          k = 0.2582-0.3878 0.3695 (  2446 PWs)   bands (ev):

   -48.1408 -20.0706 -20.0597 -20.0568 -11.4418  -0.6530   0.0958   0.3957

          k = 0.2550-0.3732-0.6733 (  2447 PWs)   bands (ev):

   -48.1407 -20.0658 -20.0644 -20.0598 -11.4056  -0.3558  -0.2861   0.1725

          k = 0.2557-0.3761-0.4648 (  2444 PWs)   bands (ev):

   -48.1407 -20.0685 -20.0615 -20.0587 -11.4212  -0.5711  -0.0150   0.2614

          k = 0.2563-0.3790-0.2562 (  2442 PWs)   bands (ev):

   -48.1409 -20.0698 -20.0580 -20.0566 -11.4729  -0.6111   0.2492   0.4300

          k =-0.5108 0.2872 0.4225 (  2450 PWs)   bands (ev):

   -48.1407 -20.0699 -20.0594 -20.0593 -11.4173  -0.7579   0.2564   0.2592

          k =-0.5101 0.2842 0.6311 (  2439 PWs)   bands (ev):

   -48.1407 -20.0690 -20.0609 -20.0580 -11.4293  -0.6412   0.0811   0.3325

          k =-0.5095 0.2813 0.8397 (  2450 PWs)   bands (ev):

   -48.1409 -20.0740 -20.0571 -20.0554 -11.4523  -0.8212   0.2931   0.4925

          k =-0.5127 0.2959-0.2032 (  2452 PWs)   bands (ev):

   -48.1409 -20.0775 -20.0542 -20.0540 -11.4633  -1.0093   0.5773   0.5777

          k =-0.5123 0.5255 0.2589 (  2450 PWs)   bands (ev):

   -48.1407 -20.0662 -20.0630 -20.0609 -11.4041  -0.4525  -0.1432   0.1241

          k =-0.5117 0.5226 0.4675 (  2437 PWs)   bands (ev):

   -48.1407 -20.0690 -20.0614 -20.0578 -11.4265  -0.6233   0.0180   0.3439

          k =-0.5110 0.5197 0.6760 (  2436 PWs)   bands (ev):

   -48.1409 -20.0694 -20.0596 -20.0562 -11.4636  -0.5823   0.1343   0.4299

          k =-0.5142 0.5343-0.3668 (  2439 PWs)   bands (ev):

   -48.1409 -20.0708 -20.0591 -20.0542 -11.4780  -0.6262   0.1486   0.5763

          k =-0.5136 0.5314-0.1583 (  2446 PWs)   bands (ev):

   -48.1409 -20.0729 -20.0575 -20.0557 -11.4554  -0.7637   0.2591   0.4739

          k =-0.5129 0.5284 0.0503 (  2442 PWs)   bands (ev):

   -48.1407 -20.0695 -20.0620 -20.0575 -11.4187  -0.5766  -0.0991   0.3247

          k =-0.5139 0.7639 0.0952 (  2431 PWs)   bands (ev):

   -48.1407 -20.0689 -20.0604 -20.0599 -11.4123  -0.6771   0.1403   0.2052

          k =-0.5132 0.7609 0.3038 (  2438 PWs)   bands (ev):

   -48.1407 -20.0693 -20.0619 -20.0576 -11.4208  -0.5882  -0.0747   0.3343

          k =-0.5126 0.7580 0.5124 (  2442 PWs)   bands (ev):

   -48.1409 -20.0750 -20.0568 -20.0549 -11.4491  -0.8857   0.3288   0.5175

          k =-0.5158 0.7726-0.5305 (  2442 PWs)   bands (ev):

   -48.1409 -20.0753 -20.0556 -20.0542 -11.4694  -0.8925   0.4439   0.5780

          k =-0.5151 0.7697-0.3219 (  2445 PWs)   bands (ev):

   -48.1409 -20.0703 -20.0590 -20.0561 -11.4618  -0.6324   0.1713   0.4406

          k =-0.5145 0.7668-0.1133 (  2442 PWs)   bands (ev):

   -48.1407 -20.0689 -20.0597 -20.0589 -11.4329  -0.6624   0.1990   0.2779

!    total energy              =    -188.85138241 Ry
     Harris-Foulkes estimate   =    -188.85138241 Ry
     estimated scf accuracy    <          7.9E-11 Ry

     total all-electron energy =     -1248.138375 Ry

     The total energy is the sum of the following terms:

     one-electron contribution =     -82.07395105 Ry
     hartree contribution      =      42.65439541 Ry
     xc contribution           =     -24.66986439 Ry
     ewald contribution        =     -68.14277752 Ry
     one-center paw contrib.   =     -56.61918485 Ry

     convergence has been achieved in  34 iterations

     Forces acting on atoms (Ry/au):

     atom    1 type  1   force =    -0.00000160    0.00000046    0.00000020
     atom    2 type  2   force =     0.00000160   -0.00000046   -0.00000020

     Total force =     0.000002     Total SCF correction =     0.000001
     SCF correction compared to forces is large: reduce conv_thr to get better values


     entering subroutine stress ...

          total   stress  (Ry/bohr**3)                   (kbar)     P=   -0.08
  -0.00000053  -0.00000043   0.00000029         -0.08     -0.06      0.04
  -0.00000043  -0.00000029  -0.00000048         -0.06     -0.04     -0.07
   0.00000029  -0.00000048  -0.00000073          0.04     -0.07     -0.11


     Writing output data file NaCl_pegs+pwscf.save
 
     init_run     :      1.20s CPU      1.46s WALL (       2 calls)
     electrons    :    313.19s CPU    413.48s WALL (      12 calls)
     update_pot   :      2.42s CPU      2.56s WALL (      10 calls)
     forces       :      1.66s CPU      1.69s WALL (      12 calls)
     stress       :      3.05s CPU      3.11s WALL (      12 calls)

     Called by init_run:
     wfcinit      :      0.69s CPU      0.87s WALL (       2 calls)
     potinit      :      0.19s CPU      0.25s WALL (       2 calls)

     Called by electrons:
     c_bands      :    274.32s CPU    348.34s WALL (     253 calls)
     sum_band     :     25.50s CPU     32.78s WALL (     253 calls)
     v_of_rho     :      1.45s CPU      1.72s WALL (     265 calls)
     newd         :      0.91s CPU      1.00s WALL (     265 calls)
     mix_rho      :      6.17s CPU      6.34s WALL (     253 calls)

     Called by c_bands:
     init_us_2    :      2.45s CPU      2.80s WALL (   33604 calls)
     ccgdiagg     :    210.19s CPU    266.90s WALL (   15686 calls)
     wfcrot       :     62.25s CPU     78.31s WALL (   15748 calls)

     Called by *cgdiagg:
     h_psi        :    225.27s CPU    288.67s WALL (  490993 calls)
     s_psi        :      3.65s CPU      5.61s WALL (  966238 calls)
     cdiaghg      :      9.35s CPU     10.10s WALL (   15748 calls)

     Called by h_psi:
     add_vuspsi   :      2.09s CPU      3.59s WALL (  490993 calls)

     General routines
     calbec       :     15.13s CPU     20.37s WALL (  984032 calls)
     fft          :      0.92s CPU      1.15s WALL (    3743 calls)
     fftw         :    224.46s CPU    280.13s WALL ( 1328938 calls)
     davcio       :      1.49s CPU      2.80s WALL (   49290 calls)
 
     Parallel routines
     fft_scatter  :    113.24s CPU    134.31s WALL ( 1332681 calls)
 
     PAW routines
     PAW_pot      :      3.78s CPU      4.58s WALL (     275 calls)
     PAW_ddot     :      5.96s CPU      5.96s WALL (    7986 calls)
 
     PWSCF        :  5m23.54s CPU     7m 7.73s WALL

 
   This run was terminated on:   0:11:55  23Mar2018            

=------------------------------------------------------------------------------=
   JOB DONE.
=------------------------------------------------------------------------------=
