
     Program PWSCF v.5.0.2 starts on 23Mar2018 at  2:19:41 

     This program is part of the open-source Quantum ESPRESSO suite
     for quantum simulation of materials; please cite
         "P. Giannozzi et al., J. Phys.:Condens. Matter 21 395502 (2009);
          URL http://www.quantum-espresso.org", 
     in publications or presentations arising from this work. More details at
     http://www.quantum-espresso.org/quote.php

     Parallel version (MPI), running on     4 processors
     R & G space division:  proc/nbgrp/npool/nimage =       4

     Current dimensions of program PWSCF are:
     Max number of different atomic species (ntypx) = 10
     Max number of k-points (npk) =  40000
     Max angular momentum in pseudopotentials (lmaxx) =  3
     Waiting for input...
     Reading input from standard input

     Subspace diagonalization in iterative solution of the eigenvalue problem:
     a serial algorithm will be used

 
     Parallelization info
     --------------------
     sticks:   dense  smooth     PW     G-vecs:    dense   smooth      PW
     Min         233     233     69                 5311     5311     851
     Max         234     234     70                 5314     5314     854
     Sum         933     933    277                21247    21247    3407
 


     bravais-lattice index     =            0
     lattice parameter (alat)  =       8.5346  a.u.
     unit-cell volume          =     621.6493 (a.u.)^3
     number of atoms/cell      =            8
     number of atomic types    =            2
     number of electrons       =       146.00
     number of Kohn-Sham states=           88
     kinetic-energy cutoff     =      40.0000  Ry
     charge density cutoff     =     160.0000  Ry
     convergence threshold     =      1.0E-04
     mixing beta               =       0.7000
     number of iterations used =            8  plain     mixing
     Exchange-correlation      = SLA-PZ-NOGX-NOGC ( 1 1 0 0 0)
     EXX-fraction              =        0.00
     nstep                     =           50


     celldm(1)=   8.534573  celldm(2)=   0.000000  celldm(3)=   0.000000
     celldm(4)=   0.000000  celldm(5)=   0.000000  celldm(6)=   0.000000

     crystal axes: (cart. coord. in units of alat)
               a(1) = (   1.000000   0.000000   0.000000 )  
               a(2) = (   0.000000   1.000000   0.000000 )  
               a(3) = (   0.000000   0.000000   1.000000 )  

     reciprocal axes: (cart. coord. in units 2 pi/alat)
               b(1) = (  1.000000  0.000000  0.000000 )  
               b(2) = (  0.000000  1.000000  0.000000 )  
               b(3) = (  0.000000  0.000000  1.000000 )  


     PseudoPot. # 1 for Dy read from file:
     /home/cwx6513/pp.La/Dy.UPF
     MD5 check sum: 9597327bec62616a94a14d07f3fd9936
     Pseudo is Norm-conserving, Zval = 20.0
     Generated in analytical, separable form
     Using radial grid of 1265 points,  6 beta functions with: 
                l(1) =   0
                l(2) =   0
                l(3) =   1
                l(4) =   1
                l(5) =   2
                l(6) =   3

     PseudoPot. # 2 for Pr read from file:
     /home/cwx6513/pp.La/Pr.UPF
     MD5 check sum: 70e2b4b153859e92c8c91247dfc63203
     Pseudo is Norm-conserving, Zval = 13.0
     Generated in analytical, separable form
     Using radial grid of 1255 points,  6 beta functions with: 
                l(1) =   0
                l(2) =   0
                l(3) =   1
                l(4) =   1
                l(5) =   2
                l(6) =   3

     atomic species   valence    mass     pseudopotential
        Cr            20.00    51.99610     Dy( 1.00)
        Si            13.00    28.08550     Pr( 1.00)

     48 Sym. Ops., with inversion, found (24 have fractional translation)



   Cartesian axes

     site n.     atom                  positions (alat units)
         1           Cr  tau(   1) = (   0.0000000   0.5000000   0.2500000  )
         2           Cr  tau(   2) = (   0.0000000   0.5000000   0.7500000  )
         3           Cr  tau(   3) = (   0.5000000   0.7500000   0.0000000  )
         4           Cr  tau(   4) = (   0.5000000   0.2500000   0.0000000  )
         5           Cr  tau(   5) = (   0.7500000   0.0000000   0.5000000  )
         6           Cr  tau(   6) = (   0.2500000   0.0000000   0.5000000  )
         7           Si  tau(   7) = (   0.5000000   0.5000000   0.5000000  )
         8           Si  tau(   8) = (   0.0000000   0.0000000   0.0000000  )

     number of k points=    48  gaussian smearing, width (Ry)=  0.1000
                       cart. coord. in units 2pi/alat
        k(    1) = (   0.0000000   0.0000000   0.0000000), wk =   0.0095238
        k(    2) = (   0.0000000   0.0000000   0.1428571), wk =   0.0190476
        k(    3) = (   0.0000000   0.0000000   0.2857143), wk =   0.0190476
        k(    4) = (   0.0000000   0.0000000   0.4285714), wk =   0.0190476
        k(    5) = (   0.0000000   0.1666667   0.0000000), wk =   0.0190476
        k(    6) = (   0.0000000   0.1666667   0.1428571), wk =   0.0380952
        k(    7) = (   0.0000000   0.1666667   0.2857143), wk =   0.0380952
        k(    8) = (   0.0000000   0.1666667   0.4285714), wk =   0.0380952
        k(    9) = (   0.0000000   0.3333333   0.0000000), wk =   0.0190476
        k(   10) = (   0.0000000   0.3333333   0.1428571), wk =   0.0380952
        k(   11) = (   0.0000000   0.3333333   0.2857143), wk =   0.0380952
        k(   12) = (   0.0000000   0.3333333   0.4285714), wk =   0.0380952
        k(   13) = (   0.0000000  -0.5000000   0.0000000), wk =   0.0095238
        k(   14) = (   0.0000000  -0.5000000   0.1428571), wk =   0.0190476
        k(   15) = (   0.0000000  -0.5000000   0.2857143), wk =   0.0190476
        k(   16) = (   0.0000000  -0.5000000   0.4285714), wk =   0.0190476
        k(   17) = (   0.2000000   0.0000000   0.0000000), wk =   0.0190476
        k(   18) = (   0.2000000   0.0000000   0.1428571), wk =   0.0380952
        k(   19) = (   0.2000000   0.0000000   0.2857143), wk =   0.0380952
        k(   20) = (   0.2000000   0.0000000   0.4285714), wk =   0.0380952
        k(   21) = (   0.2000000   0.1666667   0.0000000), wk =   0.0380952
        k(   22) = (   0.2000000   0.1666667   0.1428571), wk =   0.0761905
        k(   23) = (   0.2000000   0.1666667   0.2857143), wk =   0.0761905
        k(   24) = (   0.2000000   0.1666667   0.4285714), wk =   0.0761905
        k(   25) = (   0.2000000   0.3333333   0.0000000), wk =   0.0380952
        k(   26) = (   0.2000000   0.3333333   0.1428571), wk =   0.0761905
        k(   27) = (   0.2000000   0.3333333   0.2857143), wk =   0.0761905
        k(   28) = (   0.2000000   0.3333333   0.4285714), wk =   0.0761905
        k(   29) = (   0.2000000  -0.5000000   0.0000000), wk =   0.0190476
        k(   30) = (   0.2000000  -0.5000000   0.1428571), wk =   0.0380952
        k(   31) = (   0.2000000  -0.5000000   0.2857143), wk =   0.0380952
        k(   32) = (   0.2000000  -0.5000000   0.4285714), wk =   0.0380952
        k(   33) = (   0.4000000   0.0000000   0.0000000), wk =   0.0190476
        k(   34) = (   0.4000000   0.0000000   0.1428571), wk =   0.0380952
        k(   35) = (   0.4000000   0.0000000   0.2857143), wk =   0.0380952
        k(   36) = (   0.4000000   0.0000000   0.4285714), wk =   0.0380952
        k(   37) = (   0.4000000   0.1666667   0.0000000), wk =   0.0380952
        k(   38) = (   0.4000000   0.1666667   0.1428571), wk =   0.0761905
        k(   39) = (   0.4000000   0.1666667   0.2857143), wk =   0.0761905
        k(   40) = (   0.4000000   0.1666667   0.4285714), wk =   0.0761905
        k(   41) = (   0.4000000   0.3333333   0.0000000), wk =   0.0380952
        k(   42) = (   0.4000000   0.3333333   0.1428571), wk =   0.0761905
        k(   43) = (   0.4000000   0.3333333   0.2857143), wk =   0.0761905
        k(   44) = (   0.4000000   0.3333333   0.4285714), wk =   0.0761905
        k(   45) = (   0.4000000  -0.5000000   0.0000000), wk =   0.0190476
        k(   46) = (   0.4000000  -0.5000000   0.1428571), wk =   0.0380952
        k(   47) = (   0.4000000  -0.5000000   0.2857143), wk =   0.0380952
        k(   48) = (   0.4000000  -0.5000000   0.4285714), wk =   0.0380952

     Dense  grid:    21247 G-vectors     FFT dimensions: (  36,  36,  36)

     Largest allocated arrays     est. size (Mb)     dimensions
        Kohn-Sham Wavefunctions         0.92 Mb     (    683,   88)
        NL pseudopotentials             1.67 Mb     (    683,  160)
        Each V/rho on FFT grid          0.18 Mb     (  11664)
        Each G-vector array             0.04 Mb     (   5314)
        G-vector shells                 0.04 Mb     (   5314)
     Largest temporary arrays     est. size (Mb)     dimensions
        Each subspace H/S matrix        0.12 Mb     (  88,  88)
        Each <psi_i|beta_j> matrix      0.21 Mb     (    160,   88)
        Arrays for rho mixing           1.42 Mb     (  11664,   8)

     Initial potential from superposition of free atoms
     Check: negative starting charge=   -0.000293

     starting charge   25.98109, renormalised to  146.00000

     negative rho (up, down):  0.165E-02 0.000E+00
     Starting wfc are   40 randomized atomic wfcs

     total cpu time spent up to now is        3.7 secs

     Self-consistent Calculation

     iteration #  1     ecut=    40.00 Ry     beta=0.70
     CG style diagonalization
     c_bands:  1 eigenvalues not converged
     c_bands:  4 eigenvalues not converged
     c_bands:  2 eigenvalues not converged
     c_bands:  2 eigenvalues not converged
     c_bands:  2 eigenvalues not converged
     c_bands:  1 eigenvalues not converged
     c_bands:  1 eigenvalues not converged
     c_bands:  2 eigenvalues not converged
     c_bands:  3 eigenvalues not converged
     c_bands:  5 eigenvalues not converged
     c_bands:  4 eigenvalues not converged
     c_bands:  1 eigenvalues not converged
     c_bands:  1 eigenvalues not converged
     c_bands:  4 eigenvalues not converged
     c_bands:  2 eigenvalues not converged
     c_bands:  2 eigenvalues not converged
     c_bands:  3 eigenvalues not converged
     c_bands:  3 eigenvalues not converged
     c_bands:  1 eigenvalues not converged
     c_bands:  1 eigenvalues not converged
     c_bands:  1 eigenvalues not converged
     c_bands:  2 eigenvalues not converged
     c_bands:  2 eigenvalues not converged
     c_bands:  2 eigenvalues not converged
     c_bands:  2 eigenvalues not converged
     c_bands:  1 eigenvalues not converged
     c_bands:  2 eigenvalues not converged
     c_bands:  2 eigenvalues not converged
     c_bands:  3 eigenvalues not converged
     c_bands:  1 eigenvalues not converged
     c_bands:  2 eigenvalues not converged
     c_bands:  2 eigenvalues not converged
     c_bands:  2 eigenvalues not converged
     c_bands:  2 eigenvalues not converged
     c_bands:  1 eigenvalues not converged
     c_bands:  2 eigenvalues not converged
     c_bands:  1 eigenvalues not converged
     c_bands:  1 eigenvalues not converged
     c_bands:  2 eigenvalues not converged
     c_bands:  1 eigenvalues not converged
     c_bands:  1 eigenvalues not converged
     c_bands:  2 eigenvalues not converged
     ethr =  1.00E-02,  avg # of iterations = 31.5

     negative rho (up, down):  0.489E-03 0.000E+00

     total cpu time spent up to now is      116.6 secs

     total energy              =   -1491.13241508 Ry
     Harris-Foulkes estimate   =   -4227.20837182 Ry
     estimated scf accuracy    <    3213.89455105 Ry

     iteration #  2     ecut=    40.00 Ry     beta=0.70
     CG style diagonalization
     c_bands:  1 eigenvalues not converged
     c_bands:  1 eigenvalues not converged
     c_bands:  2 eigenvalues not converged
     c_bands:  1 eigenvalues not converged
     c_bands:  1 eigenvalues not converged
     c_bands:  1 eigenvalues not converged
     c_bands:  2 eigenvalues not converged
     c_bands:  1 eigenvalues not converged
     c_bands:  1 eigenvalues not converged
     c_bands:  1 eigenvalues not converged
     c_bands:  2 eigenvalues not converged
     c_bands:  1 eigenvalues not converged
     c_bands:  1 eigenvalues not converged
     c_bands:  2 eigenvalues not converged
     c_bands:  1 eigenvalues not converged
     c_bands:  2 eigenvalues not converged
     c_bands:  1 eigenvalues not converged
     c_bands:  1 eigenvalues not converged
     c_bands:  2 eigenvalues not converged
     c_bands:  1 eigenvalues not converged
     c_bands:  1 eigenvalues not converged
     c_bands:  2 eigenvalues not converged
     c_bands:  1 eigenvalues not converged
     c_bands:  1 eigenvalues not converged
     c_bands:  1 eigenvalues not converged
     ethr =  1.00E-02,  avg # of iterations = 11.3

     negative rho (up, down):  0.808E-04 0.000E+00

     total cpu time spent up to now is      156.9 secs

     total energy              =   -1689.99243490 Ry
     Harris-Foulkes estimate   =   -1835.87382496 Ry
     estimated scf accuracy    <     194.20204896 Ry

     iteration #  3     ecut=    40.00 Ry     beta=0.70
     CG style diagonalization
     ethr =  1.00E-02,  avg # of iterations =  5.9

     negative rho (up, down):  0.199E-04 0.000E+00

     total cpu time spent up to now is      177.6 secs

     total energy              =   -1737.74895550 Ry
     Harris-Foulkes estimate   =   -1745.65913124 Ry
     estimated scf accuracy    <      11.60240778 Ry

     iteration #  4     ecut=    40.00 Ry     beta=0.70
     CG style diagonalization
     ethr =  7.95E-03,  avg # of iterations =  3.8

     total cpu time spent up to now is      190.9 secs

     total energy              =   -1740.13091023 Ry
     Harris-Foulkes estimate   =   -1741.72732590 Ry
     estimated scf accuracy    <       1.86198215 Ry

     iteration #  5     ecut=    40.00 Ry     beta=0.70
     CG style diagonalization
     ethr =  1.28E-03,  avg # of iterations =  4.2

     total cpu time spent up to now is      205.9 secs

     total energy              =   -1740.61066574 Ry
     Harris-Foulkes estimate   =   -1742.01048708 Ry
     estimated scf accuracy    <       2.34153277 Ry

     iteration #  6     ecut=    40.00 Ry     beta=0.70
     CG style diagonalization
     ethr =  1.28E-03,  avg # of iterations =  3.6

     total cpu time spent up to now is      218.8 secs

     total energy              =   -1741.19050412 Ry
     Harris-Foulkes estimate   =   -1741.19737024 Ry
     estimated scf accuracy    <       0.02015013 Ry

     iteration #  7     ecut=    40.00 Ry     beta=0.70
     CG style diagonalization
     c_bands:  2 eigenvalues not converged
     c_bands:  2 eigenvalues not converged
     c_bands:  2 eigenvalues not converged
     c_bands:  3 eigenvalues not converged
     c_bands:  2 eigenvalues not converged
     c_bands:  1 eigenvalues not converged
     c_bands:  1 eigenvalues not converged
     c_bands:  4 eigenvalues not converged
     c_bands:  2 eigenvalues not converged
     c_bands:  3 eigenvalues not converged
     c_bands:  2 eigenvalues not converged
     c_bands:  2 eigenvalues not converged
     c_bands:  1 eigenvalues not converged
     c_bands:  1 eigenvalues not converged
     c_bands:  1 eigenvalues not converged
     c_bands:  2 eigenvalues not converged
     c_bands:  2 eigenvalues not converged
     c_bands:  3 eigenvalues not converged
     c_bands:  1 eigenvalues not converged
     c_bands:  2 eigenvalues not converged
     c_bands:  2 eigenvalues not converged
     c_bands:  2 eigenvalues not converged
     c_bands:  1 eigenvalues not converged
     c_bands:  1 eigenvalues not converged
     c_bands:  1 eigenvalues not converged
     c_bands:  1 eigenvalues not converged
     c_bands:  4 eigenvalues not converged
     c_bands:  1 eigenvalues not converged
     ethr =  1.38E-05,  avg # of iterations =  5.6

     total cpu time spent up to now is      239.1 secs

     total energy              =   -1741.20322027 Ry
     Harris-Foulkes estimate   =   -1741.21127638 Ry
     estimated scf accuracy    <       0.02127294 Ry

     iteration #  8     ecut=    40.00 Ry     beta=0.70
     CG style diagonalization
     c_bands:  1 eigenvalues not converged
     c_bands:  1 eigenvalues not converged
     c_bands:  1 eigenvalues not converged
     c_bands:  1 eigenvalues not converged
     c_bands:  1 eigenvalues not converged
     ethr =  1.38E-05,  avg # of iterations =  3.2

     total cpu time spent up to now is      250.5 secs

     total energy              =   -1741.20364592 Ry
     Harris-Foulkes estimate   =   -1741.20528361 Ry
     estimated scf accuracy    <       0.00327300 Ry

     iteration #  9     ecut=    40.00 Ry     beta=0.70
     CG style diagonalization
     c_bands:  1 eigenvalues not converged
     c_bands:  1 eigenvalues not converged
     c_bands:  1 eigenvalues not converged
     ethr =  2.24E-06,  avg # of iterations =  4.1

     total cpu time spent up to now is      264.4 secs

     End of self-consistent calculation

          k = 0.0000 0.0000 0.0000 (  2601 PWs)   bands (ev):

   -39.6582 -39.5432 -39.5432 -38.9088 -38.9088 -38.9088  -9.0561  -9.0561
    -8.8145  -7.0737  -7.0737  -7.0737  -6.2114  -6.2114  -6.2114  -6.1797
    -6.1797  -6.1796  -5.9352  -5.9352  -5.9352  -4.9413  -4.9413  -4.9413
     2.9827   3.1244  21.0878  21.0878  21.0878  21.3425  21.3425  21.3425
    28.0427  28.0427  28.2203  29.3485  29.3485  29.3485  30.8313  32.1752
    32.1752  32.1752  32.4189  32.4189  32.6822  34.1202  34.1202  34.1202
    34.3689  35.7640  35.7640  35.7640  37.4553  37.4553  37.5087  37.5087
    37.5087  37.5276  37.5276  37.5276  38.2141  38.2141  38.2141  38.8461
    38.8461  43.4694  43.4694  43.4694  44.4162  44.4162  46.2109  46.2109
    46.2109  47.3959  47.3959  47.3959  50.9902  50.9902  50.9902  51.3322
    51.3322  51.3323  53.1082  53.6819  54.9540  54.9544  55.4337  55.4355

          k = 0.0000 0.0000 0.1429 (  2657 PWs)   bands (ev):

   -39.6543 -39.5540 -39.5166 -38.9817 -38.9454 -38.9454  -9.0778  -9.0110
    -8.7551  -7.0694  -7.0694  -7.0325  -6.3120  -6.3120  -6.2428  -6.2015
    -6.1197  -6.1197  -5.9863  -5.9863  -5.9796  -5.1735  -4.9531  -4.9531
     3.0135   3.1346  21.0194  21.1310  21.1310  21.3484  21.3644  21.3644
    28.0390  28.1802  28.6274  29.0864  29.4427  29.4427  30.9219  31.9299
    31.9299  32.1522  32.4440  32.4557  33.1136  33.3529  34.2003  34.2003
    34.5900  35.6326  35.6326  35.6816  36.9177  37.0740  37.0740  37.1027
    37.4744  37.4744  37.7692  37.9046  37.9734  38.4375  38.4375  39.2074
    39.2287  43.7005  44.0185  44.0185  44.1426  45.0226  45.1823  45.1823
    45.8937  46.2293  48.4646  48.4646  50.5643  50.8484  51.2098  51.2098
    51.7303  51.7303  53.5329  54.0143  54.8230  55.0684  55.2454  55.2451

          k = 0.0000 0.0000 0.2857 (  2677 PWs)   bands (ev):

   -39.6455 -39.5712 -39.4529 -39.0710 -38.9521 -38.9521  -9.0651  -8.9882
    -8.3086  -7.0514  -7.0514  -6.9185  -6.3907  -6.3781  -6.3781  -6.1700
    -6.0606  -6.0606  -6.0243  -6.0243  -6.0187  -5.8317  -4.9611  -4.9611
     3.0845   3.1580  20.9257  21.2193  21.2194  21.3013  21.4363  21.4363
    28.0445  28.2337  28.8257  29.6892  29.6892  30.0130  31.1712  31.4057
    31.4057  31.7107  32.0600  32.4823  32.6359  34.2693  34.2693  34.3331
    34.8315  35.5991  35.5991  35.6421  36.0733  36.0733  36.4383  36.6745
    36.8884  37.5636  37.5636  38.0045  38.2495  38.8446  38.8445  39.7569
    39.8110  43.1943  43.1943  43.2399  43.8880  44.3179  46.1594  46.1808
    46.1808  46.4912  49.7095  49.7095  49.9719  50.1239  51.2903  51.2903
    52.9185  52.9186  53.2247  54.1763  54.6152  54.6153  54.7565  55.2710

          k = 0.0000 0.0000 0.4286 (  2658 PWs)   bands (ev):

   -39.6149 -39.5766 -39.3314 -39.1948 -38.9469 -38.9469  -9.0431  -9.0133
    -7.5561  -7.0383  -7.0383  -6.7360  -6.6735  -6.5556  -6.3967  -6.3967
    -6.1191  -6.0748  -6.0748  -6.0637  -5.9814  -5.9813  -4.9561  -4.9561
     3.1487   3.1709  20.9614  21.1399  21.2688  21.2688  21.5201  21.5201
    28.1553  28.2396  29.0817  29.9373  29.9373  30.0084  30.9812  30.9812
    31.5142  31.8426  32.1930  32.5000  32.8440  34.4271  34.4271  34.7180
    34.9415  35.0509  35.0509  35.1245  35.7905  35.7905  36.2242  36.3320
    36.8984  37.7973  37.7972  38.1995  38.3062  38.9220  39.1010  39.1010
    40.3523  41.2274  42.1918  42.1918  45.0910  45.1228  45.7765  46.9744
    47.6527  47.6527  49.4449  49.9900  50.8399  50.8399  51.4574  51.4575
    52.6584  52.9832  52.9833  53.1541  54.0689  54.0689  55.5905  55.7074

          k = 0.0000 0.1667 0.0000 (  2653 PWs)   bands (ev):

   -39.6484 -39.5509 -39.5070 -38.9933 -38.9459 -38.9459  -9.0760  -8.9981
    -8.7100  -7.0635  -7.0634  -7.0096  -6.3248  -6.3248  -6.2592  -6.1974
    -6.1045  -6.1045  -5.9919  -5.9919  -5.9844  -5.2501  -4.9513  -4.9513
     3.0239   3.1381  21.0014  21.1458  21.1458  21.3478  21.3731  21.3731
    28.0379  28.1918  28.8061  29.0220  29.4758  29.4758  30.9537  31.8525
    31.8525  32.1434  32.4415  32.4508  33.1379  33.2789  34.2187  34.2187
    34.6441  35.6069  35.6069  35.6589  36.8262  36.9294  36.9294  37.0320
    37.4752  37.4752  37.7942  37.8108  38.0351  38.5031  38.5031  39.3197
    39.3303  43.7829  44.0663  44.0713  44.0713  45.1066  45.1066  45.2328
    45.4694  46.2309  48.6906  48.6906  50.4135  50.7878  51.2304  51.2304
    51.9130  51.9130  53.5547  54.1106  54.8124  55.1414  55.2040  55.2041

          k = 0.0000 0.1667 0.1429 (  2662 PWs)   bands (ev):

   -39.6520 -39.5350 -39.5043 -38.9930 -38.9816 -38.9479  -9.0468  -8.8881
    -8.6871  -7.0488  -7.0332  -7.0005  -6.4040  -6.3734  -6.2105  -6.1828
    -6.1267  -6.0712  -6.0413  -6.0117  -5.9557  -5.2674  -5.1824  -4.9525
     3.0531   3.1503  21.0399  21.0932  21.1972  21.3240  21.3927  21.4111
    28.1203  28.6299  28.8091  29.1393  29.2389  29.5723  31.0058  31.6588
    31.8151  31.9959  32.4896  32.5286  33.0912  33.5040  33.6978  34.2905
    34.8838  35.3302  35.4242  35.7216  36.3198  36.8114  36.8488  37.1198
    37.1980  37.3494  37.6246  37.7589  38.1996  38.5272  38.6358  39.7015
    39.7927  43.7669  43.8712  44.2125  44.3775  44.4490  45.1907  45.2786
    45.9843  46.1212  47.8499  49.2638  50.6122  50.9484  51.3688  51.6121
    51.7946  52.0502  53.8316  54.2071  54.4824  54.9518  54.9865  55.0840

          k = 0.0000 0.1667 0.2857 (  2666 PWs)   bands (ev):

   -39.6286 -39.5401 -39.4433 -39.0733 -38.9948 -38.9497  -9.0388  -8.7892
    -8.3140  -7.0180  -7.0050  -6.9095  -6.4969  -6.4284  -6.2628  -6.1926
    -6.0981  -6.0662  -6.0476  -6.0195  -5.9591  -5.8070  -5.2652  -4.9544
     3.1201   3.1775  20.9804  21.1551  21.2871  21.2962  21.4446  21.4548
    28.1538  28.7659  29.0486  29.3947  29.8274  30.0273  30.9604  31.2202
    31.6526  31.8836  31.9552  32.5249  32.6816  33.5531  34.2820  34.3481
    35.1092  35.2626  35.3904  35.5455  35.6103  36.1870  36.4039  36.8030
    36.9778  37.1536  37.3335  37.8796  38.4572  38.5597  38.9362  40.1238
    40.4508  42.6816  42.9991  43.2002  44.3622  45.1324  46.0407  46.2168
    46.3604  46.4121  48.1163  50.1486  50.5425  50.7611  51.2358  52.1301
    52.4415  53.0881  53.1607  53.5524  54.1835  54.5887  54.7576  54.8901

          k = 0.0000 0.1667 0.4286 (  2658 PWs)   bands (ev):

   -39.5936 -39.5545 -39.3315 -39.1941 -38.9906 -38.9537  -9.0387  -8.7926
    -7.5671  -6.9953  -6.9927  -6.7601  -6.6651  -6.5853  -6.4474  -6.3226
    -6.2366  -6.1026  -6.0537  -6.0212  -5.9803  -5.9782  -5.2644  -4.9472
     3.1783   3.1958  20.9928  21.1556  21.2274  21.3484  21.4876  21.5383
    28.2148  28.8284  29.2036  29.6294  30.0900  30.1242  30.6881  31.2112
    31.7498  31.9609  32.2268  32.4547  32.7689  33.7474  34.2915  34.3773
    34.6722  34.7151  35.0419  35.4784  35.5783  35.9511  36.1681  36.6471
    36.6691  37.3883  37.5309  38.1594  38.4116  38.4564  39.1867  39.3931
    40.7654  41.7557  42.2298  42.2702  45.4212  45.6382  46.0429  46.5168
    47.1554  47.7742  48.8681  50.2562  50.5098  51.0017  51.5272  51.6059
    52.2122  52.8344  53.1120  53.8380  53.9106  54.2215  54.4309  55.4981

          k = 0.0000 0.3333 0.0000 (  2677 PWs)   bands (ev):

   -39.6387 -39.5782 -39.4140 -39.1219 -38.9466 -38.9466  -9.0592  -8.9911
    -8.0967  -7.0481  -7.0481  -6.8652  -6.4553  -6.3899  -6.3899  -6.1542
    -6.0769  -6.0662  -6.0662  -6.0278  -6.0120  -6.0120  -4.9678  -4.9678
     3.1091   3.1647  20.9172  21.2419  21.2419  21.2596  21.4672  21.4672
    28.0689  28.2425  28.8414  29.7830  29.7830  30.4606  31.2344  31.2344
    31.2796  31.3980  32.0032  32.4921  32.6397  34.2903  34.2903  34.7041
    34.8588  35.5948  35.5948  35.7739  35.7739  35.8319  36.3315  36.3411
    36.5427  37.6369  37.6369  38.0756  38.2910  38.9601  38.9601  39.6914
    39.9883  42.4328  42.7815  42.7815  44.1086  44.5651  46.0746  46.7670
    46.7670  46.9424  49.7232  49.9703  50.0806  50.0806  51.3158  51.3158
    53.0055  53.3399  53.3399  53.9054  54.1456  54.1457  54.8904  55.2690

          k = 0.0000 0.3333 0.1429 (  2660 PWs)   bands (ev):

   -39.6159 -39.5476 -39.4101 -39.1100 -38.9836 -38.9509  -9.0396  -8.8528
    -8.0887  -7.0157  -7.0085  -6.8556  -6.5143  -6.4269  -6.3035  -6.1909
    -6.1140  -6.0714  -6.0683  -6.0083  -6.0020  -5.9724  -5.1826  -4.9486
     3.1346   3.1809  20.9579  21.1932  21.2609  21.3014  21.4604  21.4812
    28.1622  28.6352  28.9889  29.5583  29.8885  30.4301  30.9345  31.1737
    31.5874  31.6008  31.9621  32.5185  32.6525  33.7126  34.2797  34.5444
    35.0478  35.2387  35.3710  35.5381  35.7731  35.9663  36.2828  36.5924
    36.6611  37.3173  37.4245  37.9941  38.4483  38.6253  39.0174  39.9808
    40.4631  42.3933  42.7114  42.7170  44.4334  45.1386  46.0547  46.5051
    46.8221  46.8943  48.5466  50.3473  50.3485  50.5301  51.3391  51.9652
    52.7435  53.0415  53.3523  53.4201  53.9663  54.5364  54.6747  54.8801

          k = 0.0000 0.3333 0.2857 (  2658 PWs)   bands (ev):

   -39.5902 -39.4925 -39.4014 -39.1141 -39.0691 -38.9565  -9.0393  -8.3635
    -8.0919  -6.9528  -6.9375  -6.8563  -6.5627  -6.4958  -6.3056  -6.2460
    -6.1594  -6.1060  -6.0226  -6.0222  -5.9845  -5.9425  -5.7770  -4.9497
     3.1909   3.2172  20.9943  21.1393  21.2747  21.4277  21.4337  21.5130
    28.2156  29.0898  29.2869  30.0490  30.1785  30.4961  30.5099  31.1905
    31.4774  31.9217  32.1303  32.4576  32.6449  33.0763  33.9593  34.3631
    34.7561  34.9749  35.1641  35.2792  35.5324  35.9436  36.4446  36.7225
    36.8412  36.8807  37.0528  37.8159  37.9371  38.5957  39.1461  40.2864
    40.7642  41.9814  42.6460  43.1547  45.3013  45.9694  46.3065  46.6105
    46.9159  47.1545  47.2557  49.6771  50.7691  51.1603  51.3233  51.9518
    52.7980  53.0701  53.2592  53.5372  53.6788  54.7453  54.9156  55.4835

          k = 0.0000 0.3333 0.4286 (  2654 PWs)   bands (ev):

   -39.5818 -39.4476 -39.3339 -39.1974 -39.1066 -38.9519  -9.0399  -8.1265
    -7.5857  -6.9316  -6.8944  -6.8358  -6.6482  -6.5473  -6.5223  -6.4129
    -6.2769  -6.1479  -6.0988  -6.0080  -5.9815  -5.9599  -5.9388  -4.9581
     3.2373   3.2448  20.9514  21.1700  21.2813  21.4068  21.5117  21.5727
    28.2674  29.1077  29.2633  30.1484  30.5242  30.5613  30.7271  31.5433
    32.0598  32.0902  32.2171  32.4958  32.7561  33.1309  33.5860  33.6763
    34.1744  34.4037  35.0890  35.1541  35.5313  35.6962  36.3392  36.4587
    36.5245  36.9904  37.2111  37.7395  38.1181  38.4748  39.0988  39.2297
    41.2174  41.7676  42.6072  44.0766  45.8224  45.9723  46.2032  46.7601
    47.3888  48.0601  48.1232  48.6173  50.2107  50.5916  50.8743  52.1647
    52.3416  53.1863  53.4744  53.9244  54.8517  54.9077  55.2968  55.5811

          k = 0.0000-0.5000 0.0000 (  2666 PWs)   bands (ev):

   -39.5994 -39.5994 -39.2661 -39.2661 -38.9480 -38.9480  -9.0336  -9.0336
    -7.1238  -7.1238  -7.0366  -7.0366  -6.6546  -6.6546  -6.4008  -6.4008
    -6.0927  -6.0927  -6.0857  -6.0857  -5.9749  -5.9749  -4.9568  -4.9568
     3.1653   3.1653  21.0388  21.0388  21.2741  21.2741  21.5333  21.5333
    28.2106  28.2106  29.4701  29.4701  29.9803  29.9803  30.9157  30.9157
    31.6877  31.6877  32.4677  32.4677  33.7359  33.7359  34.5911  34.5911
    34.7638  34.7638  34.9630  34.9630  35.8177  35.8177  36.2406  36.2406
    37.8504  37.8504  37.9435  37.9435  38.2684  38.2684  39.1278  39.1278
    40.6989  40.6989  42.0446  42.0446  45.4593  45.4593  46.1219  46.1219
    47.8657  47.8657  49.7643  49.7643  51.0592  51.0592  52.0078  52.0078
    52.1174  52.1174  52.7376  52.7376  54.2691  54.2692  56.1002  56.1327

          k = 0.0000-0.5000 0.1429 (  2666 PWs)   bands (ev):

   -39.5951 -39.5720 -39.2688 -39.2655 -38.9804 -38.9507  -9.0345  -8.8570
    -7.1757  -7.1229  -7.0005  -6.9591  -6.7118  -6.6339  -6.4373  -6.3527
    -6.2206  -6.1034  -6.0613  -6.0104  -5.9926  -5.9771  -5.1887  -4.9537
     3.1856   3.1858  21.0288  21.0923  21.2407  21.3346  21.5067  21.5487
    28.2235  28.6921  29.3880  29.5649  29.9100  30.0943  30.7035  31.0934
    31.7546  31.8894  32.4557  32.4980  33.5501  33.6738  33.9805  34.4015
    34.4576  34.5684  34.9893  35.5241  35.5372  35.9707  36.0204  36.5605
    37.0628  37.5053  37.8845  38.2579  38.3386  38.3809  38.9422  39.2056
    40.8319  41.4734  42.0010  42.1250  45.7014  45.8407  46.1530  46.3956
    46.8400  47.9564  49.8002  49.9028  50.7296  51.2146  51.2644  51.5896
    52.2207  52.5096  52.9019  53.4227  53.9422  54.6732  54.7453  55.3645

          k = 0.0000-0.5000 0.2857 (  2658 PWs)   bands (ev):

   -39.5810 -39.4832 -39.2703 -39.2657 -39.0687 -38.9563  -9.0427  -8.3512
    -7.2294  -7.1156  -6.9190  -6.8521  -6.7921  -6.5699  -6.5076  -6.3808
    -6.2738  -6.1424  -6.0688  -5.9935  -5.9686  -5.9560  -5.7803  -4.9585
     3.2314   3.2315  20.9721  21.1880  21.2235  21.4376  21.4700  21.5780
    28.2610  29.1597  29.3494  30.0975  30.2460  30.4025  30.4330  31.4420
    31.9766  32.0762  32.3795  32.4850  33.2609  33.5312  33.7379  33.7594
    33.8303  34.1542  35.2010  35.3145  35.4927  35.5571  36.2315  36.5143
    36.7214  37.0578  37.2543  38.2130  38.3517  38.4330  38.7728  39.2542
    41.0335  41.6579  42.4587  43.6723  45.7754  46.0858  46.1243  46.7912
    46.9679  48.1913  48.9270  49.0175  49.8296  50.5309  50.9840  52.1538
    52.4146  53.3013  53.4459  53.9584  54.0819  54.4710  55.5130  55.8420

          k = 0.0000-0.5000 0.4286 (  2662 PWs)   bands (ev):

   -39.5857 -39.3731 -39.2753 -39.2723 -39.1818 -38.9500  -9.0367  -7.6218
    -7.2618  -7.1256  -6.8886  -6.8142  -6.7874  -6.6314  -6.5470  -6.5274
    -6.5090  -6.1824  -6.1702  -6.1552  -5.9488  -5.9473  -5.9307  -4.9657
     3.2675   3.2676  20.8963  21.1733  21.3398  21.3738  21.5873  21.6011
    28.3063  29.0445  29.0720  29.8931  30.8465  31.3016  31.3754  31.9585
    32.0659  32.3848  32.4398  32.5700  32.7315  33.0272  33.1961  33.3770
    33.9558  33.9632  34.8508  34.9582  35.1684  35.5883  35.7288  35.9141
    36.7833  36.9424  37.5306  37.9810  38.0227  38.1895  38.2582  39.2138
    41.8041  42.0459  42.8449  45.2490  45.5525  45.9941  46.2751  46.3679
    47.6395  48.1837  48.5289  48.7822  49.9419  50.0788  50.5470  50.9784
    52.9359  53.3425  53.3826  54.1217  55.2193  55.4322  55.8454  56.6323

          k = 0.2000 0.0000 0.0000 (  2661 PWs)   bands (ev):

   -39.6563 -39.5546 -39.4943 -39.0120 -38.9463 -38.9463  -9.0730  -8.9873
    -8.6253  -7.0600  -7.0599  -6.9856  -6.3448  -6.3448  -6.2984  -6.1906
    -6.0884  -6.0884  -5.9999  -5.9999  -5.9921  -5.3908  -4.9574  -4.9574
     3.0397   3.1436  20.9754  21.1672  21.1672  21.3434  21.3874  21.3874
    28.0361  28.2056  28.9404  29.0979  29.5287  29.5287  31.0054  31.7337
    31.7337  32.1271  32.3736  32.4602  32.8616  33.5427  34.2393  34.2393
    34.7132  35.5828  35.5828  35.6298  36.7040  36.7055  36.7055  36.9313
    37.4850  37.4850  37.6036  37.8673  38.1112  38.5992  38.5992  39.4716
    39.4801  43.9146  43.9487  43.9487  43.9614  44.8468  45.2374  45.2374
    45.5614  46.2266  48.9954  48.9954  50.1994  50.6657  51.2441  51.2441
    52.1799  52.1799  53.5253  54.2107  54.8141  55.1280  55.1278  55.3019

          k = 0.2000 0.0000 0.1429 (  2667 PWs)   bands (ev):

   -39.6480 -39.5391 -39.4931 -39.0115 -38.9818 -38.9520  -9.0457  -8.8640
    -8.6159  -7.0435  -7.0272  -6.9823  -6.4299  -6.3905  -6.2232  -6.1804
    -6.1154  -6.0645  -6.0527  -6.0175  -5.9581  -5.4017  -5.1869  -4.9530
     3.0683   3.1562  21.0180  21.1129  21.2204  21.3179  21.4050  21.4197
    28.1259  28.6316  29.0671  29.0857  29.3098  29.6261  31.0281  31.5550
    31.7368  31.9859  32.4455  32.5086  32.8922  33.6275  33.7704  34.3033
    34.9528  35.3143  35.3797  35.6859  36.1531  36.6396  36.7584  37.0118
    37.1791  37.3472  37.4993  37.7876  38.2734  38.5615  38.7086  39.8310
    39.9657  43.5578  43.6100  44.1132  44.3015  44.6079  45.3773  45.4773
    45.9913  46.0945  47.9535  49.4937  50.5166  51.0178  51.2475  51.8346
    51.8614  52.3196  53.6929  54.1010  54.5914  54.7761  54.8121  55.0395

          k = 0.2000 0.0000 0.2857 (  2659 PWs)   bands (ev):

   -39.6166 -39.5279 -39.4398 -39.0714 -39.0121 -38.9512  -9.0380  -8.6898
    -8.3101  -7.0054  -6.9876  -6.9047  -6.5075  -6.4466  -6.2391  -6.2070
    -6.1046  -6.0587  -6.0580  -6.0129  -5.9533  -5.8050  -5.3891  -4.9512
     3.1337   3.1852  20.9971  21.1371  21.2839  21.3258  21.4450  21.4623
    28.1664  28.9277  29.2271  29.3177  29.8864  30.0344  30.8792  31.1913
    31.7393  31.8363  31.9353  32.5271  32.6908  33.3810  34.2495  34.4075
    35.1520  35.1936  35.3515  35.4636  35.4820  36.2397  36.3155  36.8742
    36.9609  37.0323  37.2433  37.8479  38.4538  38.5140  38.9762  40.2478
    40.5957  42.5394  42.9374  43.1163  44.5561  45.3913  46.0594  46.1682
    46.4433  46.5136  47.7798  50.2869  50.6822  50.7919  51.2526  52.3543
    52.4255  53.0440  53.1230  53.4350  54.0591  54.5883  54.6963  54.9941

          k = 0.2000 0.0000 0.4286 (  2660 PWs)   bands (ev):

   -39.5915 -39.5390 -39.3320 -39.1968 -39.0091 -38.9549  -9.0397  -8.6923
    -7.5743  -6.9818  -6.9764  -6.7733  -6.6627  -6.5892  -6.4642  -6.3041
    -6.2714  -6.1138  -6.0408  -6.0329  -5.9774  -5.9648  -5.3926  -4.9468
     3.1897   3.2051  20.9961  21.1644  21.2177  21.3786  21.4735  21.5445
    28.2238  29.0180  29.3088  29.5530  30.1563  30.1876  30.5841  31.2738
    31.8104  32.0426  32.2303  32.3709  32.7622  33.6409  34.2017  34.2442
    34.5788  34.5870  35.1631  35.4395  35.5240  35.8338  36.3099  36.5364
    36.7520  37.2315  37.4812  38.1457  38.2431  38.4846  39.2080  39.4698
    40.8022  41.7518  42.3185  42.5379  45.5262  45.8023  46.2063  46.2647
    47.1581  47.8234  48.6688  49.9693  50.5866  51.0171  51.2914  51.6626
    52.4122  52.9166  53.2730  53.7928  54.0703  54.1043  54.3759  55.5876

          k = 0.2000 0.1667 0.0000 (  2672 PWs)   bands (ev):

   -39.6485 -39.5376 -39.4864 -39.0153 -38.9976 -38.9521  -9.0463  -8.8157
    -8.6129  -7.0361  -7.0166  -6.9790  -6.4486  -6.4031  -6.2134  -6.1832
    -6.1188  -6.0640  -6.0554  -6.0339  -5.9559  -5.4042  -5.2631  -4.9562
     3.0778   3.1601  21.0265  21.1010  21.2376  21.3132  21.4101  21.4249
    28.1334  28.7974  29.0688  29.1180  29.2692  29.6598  31.0253  31.5046
    31.7350  31.9562  32.4138  32.5123  32.8828  33.5229  33.8526  34.3117
    35.0021  35.2843  35.3329  35.6635  36.0417  36.6054  36.6994  37.0253
    37.1020  37.3182  37.4475  37.7615  38.3264  38.5628  38.7455  39.9199
    40.0951  43.4031  43.5248  43.9943  44.3738  44.7681  45.3691  45.5718
    45.9653  46.2245  47.7869  49.6266  50.5735  50.9756  51.3609  51.8051
    52.0078  52.3824  53.5396  54.1309  54.6370  54.6372  54.6680  54.9910

          k = 0.2000 0.1667 0.1429 (  2665 PWs)   bands (ev):

   -39.6267 -39.5180 -39.4952 -39.0147 -38.9958 -38.9765  -8.8825  -8.8053
    -8.6094  -7.0276  -6.9836  -6.9633  -6.5565  -6.2996  -6.2641  -6.1313
    -6.1202  -6.1000  -6.0759  -5.9975  -5.9749  -5.4010  -5.2667  -5.1809
     3.1049   3.1749  21.0752  21.1477  21.1835  21.3316  21.3672  21.4675
    28.6281  28.8233  29.0937  29.2347  29.3681  29.4578  31.1312  31.4792
    31.5445  31.7414  32.4760  32.5269  32.9763  33.3340  33.8150  34.2097
    34.9747  35.0492  35.2287  35.9324  36.0217  36.1924  36.7069  36.9345
    36.9708  37.3956  37.5073  37.7055  37.8600  38.7002  38.7910  40.3419
    40.4014  43.2881  43.3690  43.7024  44.7405  45.2039  45.3095  45.6011
    45.6467  46.5405  48.1678  48.5540  50.9665  51.4961  51.6926  51.9718
    52.1996  52.4452  53.5115  53.6778  53.8792  54.0612  54.9312  55.3166

          k = 0.2000 0.1667 0.2857 (  2655 PWs)   bands (ev):

   -39.5845 -39.5088 -39.4440 -39.0737 -39.0098 -38.9916  -8.8059  -8.6816
    -8.3208  -7.0022  -6.9368  -6.8763  -6.6422  -6.3215  -6.2740  -6.1994
    -6.1311  -6.0899  -6.0462  -6.0019  -5.9726  -5.7897  -5.3876  -5.2586
     3.1664   3.2073  21.0663  21.2021  21.2574  21.2972  21.3983  21.4904
    28.8105  29.0768  29.3114  29.5003  29.6552  30.0486  31.0236  31.1128
    31.5214  31.6432  32.0762  32.4049  32.6794  33.2243  33.9060  34.3239
    34.6023  35.1275  35.3913  35.7279  35.8887  35.9953  36.3017  36.6852
    36.8920  37.0451  37.2638  37.6994  38.0478  38.4592  38.8388  40.7377
    40.9433  42.6640  42.9066  43.1111  45.0324  45.6070  45.7487  45.9536
    46.2791  46.9493  48.2050  48.6842  51.1528  51.4687  51.9887  52.1526
    52.6554  52.8717  53.0647  53.2507  53.6723  53.8550  54.9283  55.5007

          k = 0.2000 0.1667 0.4286 (  2655 PWs)   bands (ev):

   -39.5564 -39.5268 -39.3327 -39.1992 -39.0092 -38.9908  -8.7961  -8.6903
    -7.5834  -6.9665  -6.9570  -6.7530  -6.6977  -6.6378  -6.3807  -6.3516
    -6.2138  -6.1715  -6.0258  -6.0095  -6.0009  -5.9795  -5.3870  -5.2610
     3.2181   3.2303  21.0657  21.1790  21.2735  21.3221  21.4779  21.5065
    28.8741  29.1230  29.4171  29.7163  29.9660  30.1700  30.8914  31.2498
    31.7863  31.8297  32.2519  32.2800  32.4868  33.4045  33.8071  33.9963
    34.2373  34.8719  35.3215  35.4943  35.5541  36.0077  36.3272  36.3383
    36.6583  36.9520  37.4075  37.7903  38.1395  38.3550  38.8804  39.8834
    41.3961  42.0312  42.4909  42.7774  45.8849  45.9718  46.0609  46.4723
    46.9182  47.4089  48.6632  49.6017  50.7433  50.9290  51.2069  51.3561
    52.4821  52.9689  53.2977  53.7538  53.8942  54.7941  55.0216  55.5370

          k = 0.2000 0.3333 0.0000 (  2656 PWs)   bands (ev):

   -39.6067 -39.5310 -39.4072 -39.1105 -39.0091 -38.9498  -9.0358  -8.6854
    -8.0912  -6.9945  -6.9835  -6.8579  -6.5364  -6.4547  -6.2694  -6.2303
    -6.1318  -6.0783  -6.0499  -6.0113  -5.9971  -5.9541  -5.3896  -4.9515
     3.1554   3.1945  20.9843  21.1608  21.2627  21.3508  21.4526  21.4924
    28.1842  28.9202  29.2426  29.4247  29.9879  30.4287  30.7719  31.1792
    31.6002  31.7632  31.9683  32.4737  32.6566  33.4469  34.2047  34.4688
    35.0408  35.1257  35.2708  35.3766  35.6294  36.1399  36.1460  36.7106
    36.8027  37.0842  37.2414  37.9408  38.3614  38.5355  39.0692  40.2018
    40.6588  42.2306  42.6868  42.8073  44.7347  45.5538  46.1314  46.3349
    46.8040  47.0123  47.9631  50.2706  50.5308  50.8433  51.4035  52.3310
    52.4429  52.9180  53.3217  53.4302  53.8472  54.4448  54.8632  54.8948

          k = 0.2000 0.3333 0.1429 (  2657 PWs)   bands (ev):

   -39.5851 -39.5188 -39.4094 -39.1144 -39.0079 -38.9817  -8.8627  -8.6837
    -8.0986  -6.9912  -6.9488  -6.8391  -6.6418  -6.3587  -6.2984  -6.2071
    -6.1467  -6.1259  -6.0283  -6.0073  -5.9976  -5.9716  -5.3906  -5.1814
     3.1792   3.2118  21.0360  21.2110  21.2675  21.3014  21.4328  21.4942
    28.6645  29.0411  29.2944  29.5676  29.8134  30.3984  30.9225  31.1187
    31.6155  31.7240  31.8267  32.3960  32.6040  33.3384  33.9902  34.2072
    34.5619  35.1905  35.3809  35.6463  35.8208  36.0127  36.2427  36.5224
    36.8198  37.0603  37.1897  37.8045  38.1914  38.3205  38.8966  40.5257
    40.9987  42.4119  42.6481  42.9627  45.0856  45.7304  45.8486  46.2808
    46.7859  46.9319  48.2831  49.0208  50.8594  51.4439  51.9136  52.1566
    52.2752  52.9618  53.2364  53.3157  53.7300  54.0166  55.0893  55.4617

          k = 0.2000 0.3333 0.2857 (  2656 PWs)   bands (ev):

   -39.5420 -39.4758 -39.4123 -39.1129 -39.0653 -39.0111  -8.6961  -8.3558
    -8.1037  -6.9720  -6.8656  -6.8169  -6.7276  -6.3336  -6.3130  -6.2424
    -6.1847  -6.1287  -6.0502  -6.0054  -5.9876  -5.9777  -5.7796  -5.3866
     3.2319   3.2505  21.1154  21.2184  21.2924  21.3401  21.3902  21.4861
    29.1315  29.4463  29.5934  29.9770  30.0963  30.4242  30.8272  31.0861
    31.4618  31.5104  31.9670  32.1916  32.5529  32.8948  33.8014  33.8799
    34.0943  35.2399  35.3142  35.5371  35.7724  35.9817  36.1948  36.4620
    36.5885  36.8638  37.1405  37.4661  37.7802  38.4311  38.5973  40.9216
    41.4835  42.2769  42.5937  43.5601  45.5966  45.9513  46.1202  46.3166
    46.9578  47.2687  47.8296  48.7339  50.6036  51.0864  51.4917  51.7877
    52.7073  53.3703  53.4882  53.9281  54.1476  54.3179  54.8241  55.4600

          k = 0.2000 0.3333 0.4286 (  2643 PWs)   bands (ev):

   -39.5201 -39.4408 -39.3308 -39.1959 -39.0983 -39.0117  -8.6937  -8.1219
    -7.5927  -6.9367  -6.9179  -6.7961  -6.6861  -6.5841  -6.3904  -6.3712
    -6.2426  -6.1732  -6.0877  -6.0363  -6.0000  -5.9847  -5.9785  -5.3799
     3.2756   3.2806  21.0854  21.2408  21.2849  21.3940  21.4297  21.4989
    29.2047  29.4883  29.6181  30.2891  30.4362  30.6198  30.8581  31.5140
    31.6289  31.9462  32.0683  32.2122  32.3393  32.8545  33.1987  33.4143
    34.0789  34.7526  34.9822  35.5279  35.6470  35.9065  36.0690  36.3397
    36.4366  36.6791  36.8893  37.1607  37.3469  38.4939  39.1973  40.1403
    41.9277  42.2871  42.6857  44.1453  45.9202  46.3122  46.5206  46.5823
    47.2403  47.4764  48.2523  49.0560  49.8114  50.1045  50.5696  51.4490
    52.5111  53.0747  53.9253  54.6846  54.8297  55.2430  55.6618  55.9739

          k = 0.2000-0.5000 0.0000 (  2658 PWs)   bands (ev):

   -39.5886 -39.5384 -39.2674 -39.2642 -39.0098 -38.9505  -9.0370  -8.6918
    -7.1993  -7.1193  -6.9726  -6.9140  -6.7468  -6.6092  -6.4613  -6.3174
    -6.2818  -6.1184  -6.0334  -6.0314  -5.9701  -5.9641  -5.3880  -4.9485
     3.2027   3.2031  21.0133  21.1389  21.2162  21.3845  21.4818  21.5604
    28.2360  29.0739  29.3977  29.5199  30.0248  30.2053  30.5308  31.2142
    31.8229  32.0660  32.3278  32.5132  33.4438  33.6610  33.7684  34.1933
    34.3183  34.3464  35.1610  35.4150  35.4876  35.7298  36.3031  36.6612
    36.7517  37.2252  37.7134  38.2401  38.4067  38.4261  38.9203  39.2431
    40.8698  41.6099  42.2265  42.5001  45.8761  46.1354  46.2111  46.3086
    46.5910  48.0365  49.5874  49.8420  50.0969  50.9584  51.2175  51.6989
    52.3747  53.0652  53.2070  53.6010  53.7918  54.1081  55.1324  55.4285

          k = 0.2000-0.5000 0.1429 (  2658 PWs)   bands (ev):

   -39.5601 -39.5353 -39.2671 -39.2662 -39.0098 -38.9814  -8.8603  -8.6940
    -7.1870  -7.1558  -6.9287  -6.9112  -6.7288  -6.6725  -6.4072  -6.3635
    -6.2189  -6.1687  -6.0227  -6.0021  -5.9976  -5.9841  -5.3873  -5.1824
     3.2227   3.2230  21.0750  21.1356  21.2652  21.3400  21.4887  21.5250
    28.7254  29.1291  29.5209  29.5860  29.9975  30.1015  30.8239  31.1401
    31.8385  31.9056  32.2746  32.4188  33.2732  33.3151  33.7007  33.7536
    34.3539  34.5054  35.1657  35.4700  35.7188  35.8100  36.3464  36.4479
    36.6900  36.8969  37.6211  37.9166  38.1676  38.4232  39.1846  39.2050
    41.4665  41.7314  42.4143  42.6767  45.9371  46.1327  46.3802  46.6431
    46.6537  47.1734  49.7056  49.7627  50.4278  50.6147  50.8658  51.3620
    52.4209  52.9478  53.5216  53.6452  54.0370  54.2140  55.5562  55.8748

          k = 0.2000-0.5000 0.2857 (  2648 PWs)   bands (ev):

   -39.5234 -39.4785 -39.2672 -39.2658 -39.0611 -39.0103  -8.6928  -8.3523
    -7.2077  -7.1641  -6.8989  -6.8783  -6.7387  -6.6520  -6.3927  -6.3738
    -6.2177  -6.1811  -6.0600  -6.0149  -5.9986  -5.9795  -5.7822  -5.3838
     3.2681   3.2685  21.1008  21.2180  21.2673  21.3846  21.4426  21.5030
    29.2011  29.5078  29.6575  30.1324  30.1779  30.3193  30.8325  31.3687
    31.7989  31.8943  31.9996  32.2071  32.9551  32.9848  33.2980  33.3300
    34.4384  34.4990  35.0913  35.2439  35.5132  35.7064  36.2905  36.4947
    36.5581  36.6092  36.9831  37.4340  37.6232  38.3835  39.5369  39.6185
    41.8821  42.0850  42.7574  43.6158  46.0272  46.2969  46.4270  46.8106
    46.9882  47.2509  49.1959  49.4492  49.7359  49.8677  50.3845  51.4164
    52.4751  53.0161  53.9276  54.3870  54.9505  54.9578  55.6485  55.9321

          k = 0.2000-0.5000 0.4286 (  2646 PWs)   bands (ev):

   -39.5161 -39.3570 -39.2695 -39.2693 -39.1824 -39.0131  -8.6990  -7.6171
    -7.2398  -7.1519  -6.9322  -6.8776  -6.7918  -6.5887  -6.5239  -6.4162
    -6.4141  -6.1975  -6.1400  -6.1294  -5.9981  -5.9898  -5.9890  -5.3811
     3.3043   3.3045  21.0391  21.2393  21.3384  21.3657  21.4970  21.5128
    29.2589  29.4345  29.4649  30.1985  30.8835  31.1565  31.5217  31.7510
    31.8879  32.1589  32.1903  32.2428  32.2665  32.5937  32.9510  32.9712
    33.7398  34.6764  34.7189  35.0507  35.7202  35.7841  35.8673  36.1320
    36.3427  36.4841  36.6459  36.7540  37.0198  38.6346  39.6767  39.7017
    42.3069  42.5636  42.9975  45.2002  45.9591  46.2134  46.4158  46.6388
    46.8613  48.3072  48.9549  49.0369  49.5390  49.5573  49.6408  50.4429
    52.8207  53.0020  53.9487  54.5895  55.3753  55.5545  56.3984  56.4822

          k = 0.4000 0.0000 0.0000 (  2657 PWs)   bands (ev):

   -39.6175 -39.5770 -39.3583 -39.1681 -38.9442 -38.9442  -9.0466  -9.0046
    -7.7202  -7.0397  -7.0397  -6.7698  -6.5347  -6.4742  -6.3966  -6.3966
    -6.1263  -6.0700  -6.0700  -6.0487  -5.9912  -5.9912  -4.9586  -4.9586
     3.1390   3.1711  20.9401  21.1798  21.2637  21.2637  21.5079  21.5080
    28.1277  28.2441  28.9773  29.9000  29.9000  30.2393  31.0406  31.0406
    31.4431  31.8870  31.8980  32.5002  32.7180  34.3689  34.3689  34.8356
    34.9180  35.2211  35.2211  35.4483  35.7664  35.7664  36.2412  36.3862
    36.5117  37.7534  37.7534  38.1662  38.3104  39.0728  39.0728  39.2401
    40.2376  41.5208  42.3264  42.3264  44.7610  44.9378  45.8850  47.1378
    47.4499  47.4499  49.4036  50.0047  50.6235  50.6235  51.3872  51.3873
    52.7250  53.3433  53.3433  53.3736  53.8891  53.8891  55.4062  55.4536

          k = 0.4000 0.0000 0.1429 (  2659 PWs)   bands (ev):

   -39.6031 -39.5576 -39.3549 -39.1694 -38.9795 -38.9538  -9.0385  -8.8531
    -7.7324  -7.0051  -7.0043  -6.7792  -6.5671  -6.4877  -6.4349  -6.3257
    -6.2071  -6.0938  -6.0663  -6.0157  -5.9894  -5.9842  -5.1865  -4.9469
     3.1620   3.1887  20.9718  21.1792  21.2329  21.3234  21.4872  21.5210
    28.1960  28.6636  29.0899  29.6682  30.0098  30.2550  30.8028  31.2295
    31.6687  31.9017  31.9349  32.4996  32.6885  33.7911  34.3032  34.5612
    34.9382  34.9815  35.0197  35.5078  35.6726  36.0880  36.0918  36.5130
    36.5903  37.4686  37.4734  38.1167  38.4481  38.5757  39.1346  39.5728
    40.6445  41.8838  42.2211  42.3536  45.0195  45.4055  46.0061  46.6719
    47.2679  47.5443  48.7571  50.3092  50.5208  50.7885  51.4416  52.0094
    52.1273  52.8412  53.3203  53.8033  53.8313  54.0391  54.6291  55.2915

          k = 0.4000 0.0000 0.2857 (  2657 PWs)   bands (ev):

   -39.5849 -39.4838 -39.3568 -39.1733 -39.0694 -38.9549  -9.0420  -8.3553
    -7.7459  -6.9357  -6.9338  -6.8233  -6.5738  -6.5056  -6.4894  -6.3509
    -6.2502  -6.1276  -6.0737  -6.0067  -5.9696  -5.9456  -5.7801  -4.9546
     3.2136   3.2287  20.9787  21.1620  21.2574  21.4278  21.4589  21.5496
    28.2415  29.1041  29.3508  30.0770  30.2899  30.3874  30.5289  31.4078
    31.8915  31.9501  32.2300  32.2842  32.6981  33.2464  33.8497  34.0262
    34.4214  34.6437  35.2184  35.3433  35.5108  35.7531  36.3009  36.5990
    36.7447  37.0672  37.1518  37.7303  38.0644  38.5405  39.2126  39.6684
    40.9367  41.7808  42.5287  43.4389  45.6196  46.0154  46.0670  46.8407
    47.0651  47.7849  47.8390  49.1998  50.7402  50.8985  50.9219  52.0204
    52.5524  53.3238  53.3316  53.5405  54.3148  54.6078  54.8804  55.5301

          k = 0.4000 0.0000 0.4286 (  2657 PWs)   bands (ev):

   -39.5817 -39.3941 -39.3286 -39.2119 -39.1574 -38.9530  -9.0398  -7.7873
    -7.5847  -6.9096  -6.8766  -6.8533  -6.6480  -6.5441  -6.5268  -6.4870
    -6.4761  -6.1720  -6.1417  -6.1314  -5.9650  -5.9505  -5.9323  -4.9630
     3.2556   3.2596  20.9190  21.1713  21.3246  21.3790  21.5646  21.5841
    28.2898  29.0726  29.1503  29.9904  30.7085  30.9603  31.1847  31.7766
    32.1560  32.2153  32.3443  32.6700  32.6836  32.7963  33.2696  33.4729
    34.0316  34.3230  34.9221  34.9929  35.4466  35.7453  36.0365  36.1138
    36.5972  36.9165  37.3968  37.6839  38.1306  38.3913  38.6348  39.2200
    41.5578  41.9055  42.7480  44.6773  45.8553  46.0915  46.3091  46.3436
    47.9870  48.0196  48.2334  48.2662  50.0285  50.3448  50.7287  51.5193
    52.6847  53.2224  53.4401  54.2594  54.9552  55.1311  55.8477  56.3640

          k = 0.4000 0.1667 0.0000 (  2659 PWs)   bands (ev):

   -39.5991 -39.5497 -39.3552 -39.1699 -38.9908 -38.9551  -9.0395  -8.7909
    -7.7348  -6.9957  -6.9943  -6.7828  -6.5730  -6.4884  -6.4462  -6.3119
    -6.2303  -6.0993  -6.0581  -6.0229  -5.9869  -5.9746  -5.2656  -4.9463
     3.1695   3.1945  20.9794  21.1774  21.2279  21.3427  21.4795  21.5251
    28.2031  28.8084  29.1407  29.6109  30.0495  30.2717  30.7340  31.2736
    31.7255  31.9028  31.9620  32.4637  32.6838  33.6965  34.2642  34.4741
    34.8468  34.9236  35.0617  35.4658  35.6663  36.0168  36.1869  36.4942
    36.6587  37.3806  37.4049  38.1023  38.4454  38.4777  39.1524  39.6542
    40.7069  41.9028  42.3235  42.3705  45.1045  45.5461  46.0662  46.4973
    47.2739  47.5765  48.5796  50.1906  50.6202  50.8280  51.4977  51.9149
    52.1928  52.8098  53.3485  53.7834  53.8813  54.1701  54.4199  55.3198

          k = 0.4000 0.1667 0.1429 (  2662 PWs)   bands (ev):

   -39.5789 -39.5403 -39.3576 -39.1759 -38.9919 -38.9829  -8.8630  -8.7874
    -7.7427  -6.9837  -6.9729  -6.7768  -6.6478  -6.4896  -6.3780  -6.3438
    -6.2010  -6.1641  -6.0216  -6.0172  -6.0080  -5.9819  -5.2657  -5.1862
     3.1919   3.2127  21.0255  21.1939  21.2654  21.3020  21.4790  21.5059
    28.6748  28.8623  29.2473  29.7291  29.8767  30.2464  30.9072  31.2836
    31.7540  31.7993  31.9407  32.3971  32.5698  33.5256  34.0232  34.1866
    34.3932  35.0112  35.4468  35.5280  35.6169  36.1460  36.2635  36.2828
    36.6512  37.1765  37.4041  37.9361  38.2668  38.3181  38.9221  39.9603
    41.1300  42.0886  42.4081  42.5633  45.4107  45.7661  45.9494  46.5856
    46.9577  47.4095  48.5730  49.5334  50.8380  51.2682  51.5611  51.6521
    52.3017  52.8385  53.0040  53.7091  53.8999  54.3428  54.7331  55.4383

          k = 0.4000 0.1667 0.2857 (  2650 PWs)   bands (ev):

   -39.5459 -39.4781 -39.3595 -39.1682 -39.0641 -38.9929  -8.7988  -8.3506
    -7.7491  -6.9464  -6.9098  -6.7945  -6.6824  -6.4846  -6.3866  -6.3451
    -6.2316  -6.1544  -6.0690  -6.0082  -5.9959  -5.9690  -5.7809  -5.2569
     3.2420   3.2536  21.0689  21.2143  21.2659  21.3901  21.4274  21.5071
    28.9007  29.3507  29.5806  30.0910  30.1834  30.3484  30.7704  31.4531
    31.6689  31.8438  31.9719  32.2032  32.4440  33.0680  33.5583  33.7519
    34.2158  34.9198  35.1073  35.5457  35.7513  36.0484  36.1292  36.3536
    36.6290  36.7545  37.1446  37.5739  37.6557  38.5282  38.8274  40.2361
    41.4984  42.1747  42.5204  43.6568  45.8497  46.1137  46.2821  46.3956
    47.1351  47.4794  47.9750  49.1942  50.1822  50.6672  51.1505  51.6993
    52.5489  53.2991  53.4313  54.1171  54.3299  54.9151  55.1190  55.6825

          k = 0.4000 0.1667 0.4286 (  2652 PWs)   bands (ev):

   -39.5356 -39.3932 -39.3289 -39.2049 -39.1576 -38.9980  -8.8021  -7.7813
    -7.5903  -6.9274  -6.9120  -6.8226  -6.6933  -6.5557  -6.4950  -6.4189
    -6.4012  -6.1883  -6.1315  -6.1220  -5.9913  -5.9862  -5.9691  -5.2584
     3.2828   3.2856  21.0188  21.2198  21.3293  21.3681  21.4983  21.5250
    28.9560  29.3487  29.4128  30.1927  30.6903  30.9342  31.2825  31.6387
    31.9038  32.0989  32.2842  32.3118  32.4238  32.6118  32.9019  33.3512
    33.7727  34.6162  34.7996  35.5348  35.6901  35.9987  36.0386  36.1983
    36.3698  36.5456  36.6584  37.2080  37.3231  38.7476  39.1263  39.6933
    41.9798  42.2844  42.7946  44.8795  45.9276  46.3762  46.4560  46.5945
    46.8577  47.9599  48.4871  48.8082  49.7576  49.8255  50.5069  50.9419
    52.7922  52.9785  53.7209  54.6455  55.3263  55.8312  55.9635  56.1088

          k = 0.4000 0.3333 0.0000 (  2652 PWs)   bands (ev):

   -39.5834 -39.4472 -39.3545 -39.1733 -39.1058 -38.9508  -9.0389  -8.1311
    -7.7461  -6.9137  -6.9038  -6.8405  -6.5597  -6.5201  -6.4868  -6.3958
    -6.2664  -6.1419  -6.0990  -6.0020  -5.9846  -5.9608  -5.9376  -4.9578
     3.2308   3.2416  20.9586  21.1636  21.2866  21.4049  21.5056  21.5604
    28.2588  29.1053  29.2713  30.1915  30.4768  30.5302  30.7528  31.4698
    31.8857  32.0349  32.2584  32.4469  32.6564  33.0514  33.6301  33.8221
    34.2752  34.6039  35.0828  35.1641  35.5876  35.7496  36.3861  36.4981
    36.6120  36.9714  37.1934  37.5415  38.0703  38.5164  39.2187  39.3687
    41.1656  41.7823  42.6112  43.8995  45.8205  46.0586  46.1761  46.7404
    47.3163  47.8183  47.8764  48.7510  50.4441  50.7604  50.8927  52.2605
    52.2717  53.1898  53.5174  53.7747  54.5122  54.9694  55.3287  55.6663

          k = 0.4000 0.3333 0.1429 (  2654 PWs)   bands (ev):

   -39.5513 -39.4451 -39.3571 -39.1734 -39.1054 -38.9866  -8.8638  -8.1307
    -7.7496  -6.9303  -6.8917  -6.8238  -6.6500  -6.4845  -6.4102  -6.3885
    -6.2538  -6.1595  -6.0948  -6.0194  -5.9964  -5.9772  -5.9599  -5.1799
     3.2516   3.2607  21.0306  21.2013  21.2913  21.3953  21.4576  21.5231
    28.7499  29.3002  29.4533  30.2647  30.4230  30.5567  30.8245  31.4535
    31.7862  31.8369  32.1867  32.2959  32.4692  32.8884  33.3032  33.7325
    34.0751  34.7834  34.9611  35.6093  35.7410  36.0787  36.1959  36.3685
    36.4269  36.7436  37.0142  37.4067  37.6511  38.6460  38.8677  39.9555
    41.5539  42.0799  42.5793  44.1424  45.8898  46.2368  46.3022  46.5813
    47.1728  47.4510  47.9673  49.0843  49.9807  50.3737  51.0728  51.5963
    52.7867  53.1216  53.3907  54.3254  54.8730  55.0419  55.2561  55.8851

          k = 0.4000 0.3333 0.2857 (  2651 PWs)   bands (ev):

   -39.4744 -39.4307 -39.3616 -39.1716 -39.1082 -39.0691  -8.3550  -8.1271
    -7.7602  -6.9653  -6.9165  -6.7560  -6.6788  -6.4749  -6.3672  -6.3145
    -6.2515  -6.1732  -6.0883  -6.0650  -6.0215  -6.0207  -5.9901  -5.7760
     3.2988   3.3039  21.1955  21.2753  21.3063  21.3559  21.3769  21.4418
    29.7536  29.9172  30.1662  30.3405  30.3860  30.6268  30.9146  31.2003
    31.5446  31.7267  31.8467  31.9848  32.3410  32.6076  33.1729  33.2916
    33.9351  35.0233  35.1966  35.3756  35.4635  35.7958  35.8672  36.0713
    36.4967  36.6904  36.7103  36.9033  37.1910  37.8178  39.6406  40.9682
    42.2753  42.5744  42.9478  43.7167  45.7992  46.4773  46.7103  46.9280
    47.4047  47.6347  47.8717  48.2372  49.3595  50.5071  50.9771  51.4253
    52.3132  53.0256  53.8896  54.7649  55.0220  55.0995  55.4984  55.5587

          k = 0.4000 0.3333 0.4286 (  2646 PWs)   bands (ev):

   -39.4275 -39.3761 -39.3351 -39.1996 -39.1622 -39.1075  -8.1274  -7.7687
    -7.5989  -6.9817  -6.9751  -6.8005  -6.6928  -6.5499  -6.4231  -6.3514
    -6.2987  -6.2193  -6.1417  -6.0973  -6.0748  -6.0532  -6.0408  -5.9953
     3.3371   3.3384  21.2296  21.3135  21.3279  21.3498  21.3769  21.4070
    30.0557  30.1208  30.4881  30.6268  30.7218  30.7872  31.0514  31.5338
    31.7314  31.9306  31.9571  31.9913  32.1979  32.2814  32.6865  32.7549
    34.0927  34.7621  34.9559  35.2371  35.3364  35.6940  35.7450  35.7701
    36.2086  36.2571  36.4165  36.5381  36.5950  37.2908  40.7550  41.3671
    42.8529  42.9578  43.2103  43.8806  46.0338  46.5550  47.0308  47.2441
    47.3962  47.7353  47.9072  48.0862  48.3576  50.2615  50.7636  51.2817
    52.2608  52.8091  53.3500  54.7433  55.1216  55.5118  55.6452  56.1708

          k = 0.4000-0.5000 0.0000 (  2650 PWs)   bands (ev):

   -39.5783 -39.3871 -39.2709 -39.2678 -39.1596 -38.9501  -9.0365  -7.7742
    -7.2540  -7.1172  -6.8590  -6.8331  -6.7891  -6.5409  -6.5141  -6.5031
    -6.4938  -6.1700  -6.1473  -6.1356  -5.9524  -5.9499  -5.9311  -4.9633
     3.2629   3.2630  20.9089  21.1756  21.3237  21.3832  21.5716  21.5982
    28.2990  29.0625  29.1145  29.9404  30.7777  31.1061  31.1943  31.9513
    32.1005  32.2876  32.3303  32.6463  32.7008  33.1751  33.2686  33.3873
    33.9549  33.9671  34.9027  34.9847  35.2420  35.7029  35.8896  36.0450
    36.6452  36.9238  37.4499  38.0641  38.1579  38.1921  38.3056  39.2206
    41.6602  41.9624  42.7871  45.0363  45.6016  45.9606  46.3399  46.4338
    47.8543  48.0582  48.5019  48.5575  49.9093  50.1508  50.6153  51.3069
    52.8147  53.3065  53.3968  54.2330  55.1345  55.3527  55.8128  56.4273

          k = 0.4000-0.5000 0.1429 (  2650 PWs)   bands (ev):

   -39.5445 -39.3859 -39.2705 -39.2671 -39.1603 -38.9857  -8.8626  -7.7720
    -7.2457  -7.1395  -6.8932  -6.8393  -6.7922  -6.5505  -6.5221  -6.4466
    -6.4223  -6.1849  -6.1427  -6.1271  -5.9789  -5.9760  -5.9542  -5.1783
     3.2829   3.2830  20.9840  21.2108  21.3232  21.3782  21.5231  21.5515
    28.7942  29.2625  29.3125  30.1000  30.7817  31.0673  31.2647  31.7847
    32.0845  32.2402  32.2533  32.3350  32.4259  32.7798  33.1578  33.2584
    33.5804  34.4889  34.8312  35.1031  35.6670  35.9049  35.9771  36.1017
    36.4465  36.6704  36.9638  37.1355  37.4732  38.8016  39.2029  39.2379
    41.9306  42.2565  42.8609  45.1109  45.8761  46.3043  46.3727  46.5758
    46.9131  48.1429  48.5189  49.0006  49.7348  49.9744  50.0757  50.9083
    52.7672  53.0612  53.5730  54.5356  55.6969  55.7892  56.0510  56.2051

          k = 0.4000-0.5000 0.2857 (  2640 PWs)   bands (ev):

   -39.4604 -39.3769 -39.2662 -39.2633 -39.1601 -39.0694  -8.3568  -7.7654
    -7.2160  -7.1708  -6.9539  -6.9294  -6.7062  -6.5402  -6.4664  -6.3607
    -6.3273  -6.2120  -6.1302  -6.1049  -6.0556  -6.0271  -6.0262  -5.7745
     3.3282   3.3285  21.1606  21.2965  21.3146  21.3709  21.4166  21.4434
    29.8213  29.8496  30.1849  30.4176  30.7332  30.9463  31.3016  31.4475
    31.7415  31.9482  31.9870  32.2095  32.3749  32.4976  32.6268  32.7352
    34.2699  34.6117  34.8905  35.0360  35.4765  35.5005  35.9689  36.0838
    36.1965  36.2763  36.3846  36.4860  36.7252  37.8712  40.5833  40.6172
    42.7706  42.7931  43.1269  44.2726  46.0932  46.2745  46.8450  47.0530
    47.3342  47.7882  48.3239  48.4622  49.2568  49.3483  50.5479  50.7940
    52.5927  52.8341  54.1425  54.5263  54.9608  55.2907  55.7536  56.2646

          k = 0.4000-0.5000 0.4286 (  2640 PWs)   bands (ev):

   -39.3649 -39.3401 -39.2668 -39.2652 -39.1916 -39.1679  -7.7661  -7.6042
    -7.1966  -7.1889  -7.0053  -7.0014  -6.7946  -6.6671  -6.3918  -6.3503
    -6.2873  -6.2581  -6.1924  -6.1740  -6.1021  -6.0979  -6.0825  -6.0803
     3.3645   3.3647  21.2853  21.3154  21.3487  21.3569  21.3620  21.3670
    30.4078  30.4258  30.6154  30.7020  30.8646  30.8954  31.5853  31.7511
    31.7747  31.8993  32.0129  32.0253  32.1930  32.2854  32.3758  32.3760
    34.5162  34.5521  34.9595  35.0250  35.0520  35.1004  35.6664  35.7047
    35.8576  36.0463  36.0540  36.1826  36.3308  36.4899  42.1060  42.1082
    43.2705  43.3093  43.5913  43.7829  45.7548  45.7645  47.3454  47.5558
    47.6238  47.7400  47.8231  47.9224  49.0256  49.0545  50.3076  50.8554
    52.5467  52.9746  53.9914  54.2438  55.0726  55.4824  55.9862  56.0704

     the Fermi energy is    47.3678 ev

!    total energy              =   -1741.20457941 Ry
     Harris-Foulkes estimate   =   -1741.20458685 Ry
     estimated scf accuracy    <       0.00000926 Ry

     The total energy is the sum of the following terms:

     one-electron contribution =     101.75131028 Ry
     hartree contribution      =     157.89585254 Ry
     xc contribution           =    -175.96465198 Ry
     ewald contribution        =   -1824.65067477 Ry
     smearing contrib. (-TS)   =      -0.23641547 Ry

     convergence has been achieved in   9 iterations

     Forces acting on atoms (Ry/au):

     atom    1 type  1   force =     0.00000000    0.00000000    0.00000000
     atom    2 type  1   force =     0.00000000    0.00000000    0.00000000
     atom    3 type  1   force =     0.00000000    0.00000000    0.00000000
     atom    4 type  1   force =     0.00000000    0.00000000    0.00000000
     atom    5 type  1   force =     0.00000000    0.00000000    0.00000000
     atom    6 type  1   force =     0.00000000    0.00000000    0.00000000
     atom    7 type  2   force =     0.00000000    0.00000000    0.00000000
     atom    8 type  2   force =     0.00000000    0.00000000    0.00000000

     Total force =     0.000000     Total SCF correction =     0.000000


     entering subroutine stress ...

          total   stress  (Ry/bohr**3)                   (kbar)     P= 5429.57
   0.03690945   0.00000000   0.00000000       5429.57      0.00      0.00
   0.00000000   0.03690945   0.00000000          0.00   5429.57      0.00
   0.00000000   0.00000000   0.03690945          0.00      0.00   5429.57


     BFGS Geometry Optimization

     number of scf cycles    =   1
     number of bfgs steps    =   0

     enthalpy new            =   -1741.2045794062 Ry

     new trust radius        =       0.5000000000 bohr
     new conv_thr            =       0.0001000000 Ry

     new unit-cell volume =    828.02266 a.u.^3 (   122.70030 Ang^3 )

CELL_PARAMETERS (alat=  8.53457320)
   1.100269143   0.000000000   0.000000000
   0.000000000   1.100269143   0.000000000
   0.000000000   0.000000000   1.100269143

ATOMIC_POSITIONS (crystal)
Cr       0.000000000   0.500000000   0.250000000
Cr       0.000000000   0.500000000   0.750000000
Cr       0.500000000   0.750000000   0.000000000
Cr       0.500000000   0.250000000   0.000000000
Cr       0.750000000   0.000000000   0.500000000
Cr       0.250000000   0.000000000   0.500000000
Si       0.500000000   0.500000000   0.500000000
Si       0.000000000   0.000000000   0.000000000



     Writing output data file Prototype-La-cP8-Cr3Si.save
     Check: negative starting charge=   -0.000293
     NEW-OLD atomic charge density approx. for the potential
     NEW k-points:
        k(    1) = (   0.0000000   0.0000000   0.0000000), wk =   0.0095238
        k(    2) = (   0.0000000   0.0000000   0.1298384), wk =   0.0190476
        k(    3) = (   0.0000000   0.0000000   0.2596767), wk =   0.0190476
        k(    4) = (   0.0000000   0.0000000   0.3895151), wk =   0.0190476
        k(    5) = (   0.0000000   0.1514781   0.0000000), wk =   0.0190476
        k(    6) = (   0.0000000   0.1514781   0.1298384), wk =   0.0380952
        k(    7) = (   0.0000000   0.1514781   0.2596767), wk =   0.0380952
        k(    8) = (   0.0000000   0.1514781   0.3895151), wk =   0.0380952
        k(    9) = (   0.0000000   0.3029562   0.0000000), wk =   0.0190476
        k(   10) = (   0.0000000   0.3029562   0.1298384), wk =   0.0380952
        k(   11) = (   0.0000000   0.3029562   0.2596767), wk =   0.0380952
        k(   12) = (   0.0000000   0.3029562   0.3895151), wk =   0.0380952
        k(   13) = (   0.0000000  -0.4544343   0.0000000), wk =   0.0095238
        k(   14) = (   0.0000000  -0.4544343   0.1298384), wk =   0.0190476
        k(   15) = (   0.0000000  -0.4544343   0.2596767), wk =   0.0190476
        k(   16) = (   0.0000000  -0.4544343   0.3895151), wk =   0.0190476
        k(   17) = (   0.1817737   0.0000000   0.0000000), wk =   0.0190476
        k(   18) = (   0.1817737   0.0000000   0.1298384), wk =   0.0380952
        k(   19) = (   0.1817737   0.0000000   0.2596767), wk =   0.0380952
        k(   20) = (   0.1817737   0.0000000   0.3895151), wk =   0.0380952
        k(   21) = (   0.1817737   0.1514781   0.0000000), wk =   0.0380952
        k(   22) = (   0.1817737   0.1514781   0.1298384), wk =   0.0761905
        k(   23) = (   0.1817737   0.1514781   0.2596767), wk =   0.0761905
        k(   24) = (   0.1817737   0.1514781   0.3895151), wk =   0.0761905
        k(   25) = (   0.1817737   0.3029562   0.0000000), wk =   0.0380952
        k(   26) = (   0.1817737   0.3029562   0.1298384), wk =   0.0761905
        k(   27) = (   0.1817737   0.3029562   0.2596767), wk =   0.0761905
        k(   28) = (   0.1817737   0.3029562   0.3895151), wk =   0.0761905
        k(   29) = (   0.1817737  -0.4544343   0.0000000), wk =   0.0190476
        k(   30) = (   0.1817737  -0.4544343   0.1298384), wk =   0.0380952
        k(   31) = (   0.1817737  -0.4544343   0.2596767), wk =   0.0380952
        k(   32) = (   0.1817737  -0.4544343   0.3895151), wk =   0.0380952
        k(   33) = (   0.3635474   0.0000000   0.0000000), wk =   0.0190476
        k(   34) = (   0.3635474   0.0000000   0.1298384), wk =   0.0380952
        k(   35) = (   0.3635474   0.0000000   0.2596767), wk =   0.0380952
        k(   36) = (   0.3635474   0.0000000   0.3895151), wk =   0.0380952
        k(   37) = (   0.3635474   0.1514781   0.0000000), wk =   0.0380952
        k(   38) = (   0.3635474   0.1514781   0.1298384), wk =   0.0761905
        k(   39) = (   0.3635474   0.1514781   0.2596767), wk =   0.0761905
        k(   40) = (   0.3635474   0.1514781   0.3895151), wk =   0.0761905
        k(   41) = (   0.3635474   0.3029562   0.0000000), wk =   0.0380952
        k(   42) = (   0.3635474   0.3029562   0.1298384), wk =   0.0761905
        k(   43) = (   0.3635474   0.3029562   0.2596767), wk =   0.0761905
        k(   44) = (   0.3635474   0.3029562   0.3895151), wk =   0.0761905
        k(   45) = (   0.3635474  -0.4544343   0.0000000), wk =   0.0190476
        k(   46) = (   0.3635474  -0.4544343   0.1298384), wk =   0.0380952
        k(   47) = (   0.3635474  -0.4544343   0.2596767), wk =   0.0380952
        k(   48) = (   0.3635474  -0.4544343   0.3895151), wk =   0.0380952
     Check: negative starting charge=   -0.003263

     negative rho (up, down):  0.303E-02 0.000E+00
     extrapolated charge  152.47543, renormalised to  146.00000

     total cpu time spent up to now is      269.2 secs

     Self-consistent Calculation

     iteration #  1     ecut=    40.00 Ry     beta=0.70
     CG style diagonalization
     c_bands:  1 eigenvalues not converged
     c_bands:  1 eigenvalues not converged
     c_bands:  4 eigenvalues not converged
     c_bands:  3 eigenvalues not converged
     c_bands:  1 eigenvalues not converged
     c_bands:  2 eigenvalues not converged
     c_bands:  4 eigenvalues not converged
     c_bands:  2 eigenvalues not converged
     c_bands:  2 eigenvalues not converged
     c_bands:  2 eigenvalues not converged
     c_bands:  3 eigenvalues not converged
     c_bands:  4 eigenvalues not converged
     c_bands:  1 eigenvalues not converged
     c_bands:  1 eigenvalues not converged
     c_bands:  4 eigenvalues not converged
     c_bands:  1 eigenvalues not converged
     c_bands:  3 eigenvalues not converged
     c_bands:  2 eigenvalues not converged
     c_bands:  1 eigenvalues not converged
     c_bands:  4 eigenvalues not converged
     c_bands:  1 eigenvalues not converged
     c_bands:  2 eigenvalues not converged
     c_bands:  1 eigenvalues not converged
     c_bands:  1 eigenvalues not converged
     c_bands:  4 eigenvalues not converged
     c_bands:  2 eigenvalues not converged
     c_bands:  2 eigenvalues not converged
     c_bands:  4 eigenvalues not converged
     c_bands:  2 eigenvalues not converged
     c_bands:  1 eigenvalues not converged
     c_bands:  2 eigenvalues not converged
     c_bands:  1 eigenvalues not converged
     c_bands:  4 eigenvalues not converged
     c_bands:  3 eigenvalues not converged
     c_bands:  1 eigenvalues not converged
     c_bands:  1 eigenvalues not converged
     c_bands:  1 eigenvalues not converged
     c_bands:  1 eigenvalues not converged
     ethr =  1.00E-06,  avg # of iterations = 25.7

     negative rho (up, down):  0.871E-03 0.000E+00

     total cpu time spent up to now is      360.3 secs

     total energy              =   -1715.91322316 Ry
     Harris-Foulkes estimate   =   -1770.16426385 Ry
     estimated scf accuracy    <      74.86289156 Ry

     iteration #  2     ecut=    40.00 Ry     beta=0.70
     CG style diagonalization
     ethr =  1.00E-02,  avg # of iterations =  6.9

     negative rho (up, down):  0.508E-03 0.000E+00

     total cpu time spent up to now is      385.8 secs

     total energy              =   -1726.11300325 Ry
     Harris-Foulkes estimate   =   -1761.22961612 Ry
     estimated scf accuracy    <      62.95838854 Ry

     iteration #  3     ecut=    40.00 Ry     beta=0.70
     CG style diagonalization
     ethr =  1.00E-02,  avg # of iterations =  4.4

     negative rho (up, down):  0.200E-03 0.000E+00

     total cpu time spent up to now is      402.3 secs

     total energy              =   -1744.62232721 Ry
     Harris-Foulkes estimate   =   -1746.05454705 Ry
     estimated scf accuracy    <       3.36943051 Ry

     iteration #  4     ecut=    40.00 Ry     beta=0.70
     CG style diagonalization
     ethr =  2.31E-03,  avg # of iterations =  3.5

     negative rho (up, down):  0.119E-03 0.000E+00

     total cpu time spent up to now is      415.2 secs

     total energy              =   -1745.08728885 Ry
     Harris-Foulkes estimate   =   -1745.19713370 Ry
     estimated scf accuracy    <       0.39558041 Ry

     iteration #  5     ecut=    40.00 Ry     beta=0.70
     CG style diagonalization
     c_bands:  1 eigenvalues not converged
     c_bands:  1 eigenvalues not converged
     c_bands:  1 eigenvalues not converged
     c_bands:  1 eigenvalues not converged
     c_bands:  1 eigenvalues not converged
     c_bands:  1 eigenvalues not converged
     c_bands:  1 eigenvalues not converged
     c_bands:  1 eigenvalues not converged
     ethr =  2.71E-04,  avg # of iterations =  3.9

     negative rho (up, down):  0.267E-04 0.000E+00

     total cpu time spent up to now is      430.0 secs

     total energy              =   -1745.11645843 Ry
     Harris-Foulkes estimate   =   -1745.14590731 Ry
     estimated scf accuracy    <       0.08471866 Ry

     iteration #  6     ecut=    40.00 Ry     beta=0.70
     CG style diagonalization
     c_bands:  1 eigenvalues not converged
     c_bands:  1 eigenvalues not converged
     c_bands:  1 eigenvalues not converged
     c_bands:  1 eigenvalues not converged
     c_bands:  1 eigenvalues not converged
     c_bands:  1 eigenvalues not converged
     c_bands:  1 eigenvalues not converged
     ethr =  5.80E-05,  avg # of iterations =  3.7

     negative rho (up, down):  0.328E-05 0.000E+00

     total cpu time spent up to now is      443.8 secs

     total energy              =   -1745.12312740 Ry
     Harris-Foulkes estimate   =   -1745.12872760 Ry
     estimated scf accuracy    <       0.01383396 Ry

     iteration #  7     ecut=    40.00 Ry     beta=0.70
     CG style diagonalization
     c_bands:  1 eigenvalues not converged
     c_bands:  1 eigenvalues not converged
     c_bands:  1 eigenvalues not converged
     c_bands:  1 eigenvalues not converged
     c_bands:  1 eigenvalues not converged
     c_bands:  1 eigenvalues not converged
     c_bands:  1 eigenvalues not converged
     ethr =  9.48E-06,  avg # of iterations =  3.8

     total cpu time spent up to now is      458.0 secs

     total energy              =   -1745.12619018 Ry
     Harris-Foulkes estimate   =   -1745.12631689 Ry
     estimated scf accuracy    <       0.00036571 Ry

     iteration #  8     ecut=    40.00 Ry     beta=0.70
     CG style diagonalization
     c_bands:  1 eigenvalues not converged
     c_bands:  1 eigenvalues not converged
     c_bands:  1 eigenvalues not converged
     ethr =  2.50E-07,  avg # of iterations =  4.6

     total cpu time spent up to now is      473.8 secs

     End of self-consistent calculation

          k = 0.0000 0.0000 0.0000 (  2601 PWs)   bands (ev):

   -49.7818 -49.7818 -49.6361 -49.4087 -49.4087 -49.4087 -17.9287 -17.9287
   -17.8470 -16.9856 -16.9856 -16.9856 -16.6781 -16.6781 -16.6781 -16.6048
   -16.6048 -16.6048 -16.5353 -16.5353 -16.5353 -16.1747 -16.1747 -16.1747
    -8.5631  -8.5234  10.7847  10.7847  10.7847  10.8030  10.8030  10.8030
    19.5866  19.5866  19.7162  20.6791  20.6791  20.6791  22.0283  22.3447
    22.8377  22.8377  22.8377  22.9194  22.9194  23.1851  23.1851  23.1851
    23.4489  24.8718  24.8718  24.8718  25.9076  25.9076  26.0480  26.0480
    26.0480  26.0606  26.0606  26.0606  26.3932  26.3932  26.3932  27.8306
    27.8306  32.6416  32.6416  32.7233  32.7233  32.7233  33.2660  33.2660
    33.2660  33.3470  33.3470  33.3470  37.3731  38.6437  38.6437  38.6437
    40.3878  40.3876  40.6686  40.6684  40.6684  41.9582  43.7659  43.7662

          k = 0.0000 0.0000 0.1298 (  2657 PWs)   bands (ev):

   -49.7960 -49.7555 -49.6657 -49.5399 -49.5178 -49.5178 -17.9683 -17.9468
   -17.8433 -16.9864 -16.9864 -16.9724 -16.7078 -16.7078 -16.6687 -16.6494
   -16.6411 -16.6411 -16.5896 -16.5896 -16.5841 -16.2699 -16.1918 -16.1918
    -8.5569  -8.5217  10.7477  10.7735  10.7735  10.7913  10.8104  10.8104
    19.5868  19.6842  19.9640  20.5773  20.7566  20.7566  22.0826  22.5188
    22.6212  22.6212  22.7536  22.8266  22.9314  23.1126  23.3351  23.3351
    23.6164  24.8029  24.8134  24.8134  25.6419  25.7144  25.7144  25.7385
    26.0556  26.0556  26.1252  26.1900  26.2611  26.6077  26.6077  27.9231
    28.0331  32.0975  32.0975  32.2788  32.3580  32.8123  32.9945  33.1722
    33.1722  33.3187  34.4230  34.4230  37.5316  38.6348  38.8597  38.8597
    39.2138  40.8022  40.9644  40.9645  41.0181  41.8667  42.9183  43.4749

          k = 0.0000 0.0000 0.2597 (  2677 PWs)   bands (ev):

   -49.7967 -49.7395 -49.7383 -49.5695 -49.5371 -49.5371 -17.9660 -17.9403
   -17.6353 -16.9743 -16.9743 -16.9341 -16.7412 -16.7360 -16.7360 -16.6417
   -16.6356 -16.6356 -16.6112 -16.6112 -16.6000 -16.5717 -16.2030 -16.2030
    -8.5419  -8.5182  10.7099  10.7497  10.7785  10.7785  10.8403  10.8403
    19.6029  19.7216  20.4889  20.8734  20.9459  20.9459  21.9650  22.2346
    22.3117  22.3117  22.7743  22.8266  22.9422  23.5261  23.5261  23.6445
    23.8987  24.7030  24.7386  24.7386  25.0708  25.0708  25.3364  25.3679
    25.5003  26.1132  26.1132  26.3348  26.4257  26.9125  26.9125  27.7083
    28.4444  30.7557  31.1139  31.1139  32.0575  33.0403  33.4250  33.8485
    33.8485  33.9106  35.7144  35.7144  37.1249  37.3013  39.0439  39.5464
    39.5464  40.5163  41.3273  41.3272  41.5684  41.5682  41.8468  42.3046

          k = 0.0000 0.0000 0.3895 (  2658 PWs)   bands (ev):

   -49.7550 -49.7349 -49.6630 -49.6054 -49.5212 -49.5212 -17.9595 -17.9479
   -17.2923 -16.9664 -16.9664 -16.9061 -16.8485 -16.7949 -16.7346 -16.7346
   -16.6242 -16.6220 -16.6220 -16.6072 -16.5966 -16.5966 -16.1962 -16.1962
    -8.5265  -8.5182  10.6953  10.7218  10.7815  10.7815  10.8697  10.8697
    19.6624  19.7178  20.6499  21.1141  21.1141  21.1332  22.1085  22.1085
    22.2884  22.4439  22.6444  22.9034  23.0024  23.7997  23.7997  24.0245
    24.0931  24.1717  24.3366  24.3366  24.7790  24.7790  25.2255  25.2453
    25.3077  26.2064  26.2064  26.4384  26.4782  26.5845  27.1258  27.1258
    28.9345  29.6335  30.4884  30.4884  33.0004  33.2935  33.4415  34.2860
    34.2860  34.4724  35.7948  36.4606  37.3343  37.3343  39.4397  39.5031
    39.5033  39.9541  40.5528  40.5527  41.6331  41.6336  42.0565  43.5282

          k = 0.0000 0.1515 0.0000 (  2653 PWs)   bands (ev):

   -49.7799 -49.7487 -49.6598 -49.5443 -49.5187 -49.5187 -17.9676 -17.9411
   -17.8219 -16.9798 -16.9798 -16.9554 -16.7119 -16.7119 -16.6743 -16.6482
   -16.6362 -16.6362 -16.5917 -16.5917 -16.5859 -16.2968 -16.1891 -16.1891
    -8.5548  -8.5211  10.7439  10.7760  10.7760  10.7877  10.8147  10.8147
    19.5884  19.6935  20.0768  20.5527  20.7831  20.7831  22.1019  22.5317
    22.5682  22.5682  22.6949  22.8218  22.9346  23.1526  23.3684  23.3684
    23.6649  24.7828  24.7985  24.7985  25.5901  25.6200  25.6200  25.6991
    26.0320  26.0593  26.0593  26.2163  26.2963  26.6594  26.6594  27.9378
    28.0954  31.9228  31.9228  32.0457  32.2359  32.8434  33.1190  33.2766
    33.2766  33.3365  34.6216  34.6216  37.4935  38.7049  38.9290  38.9452
    38.9452  40.9455  40.9777  41.0552  41.0552  41.8774  42.9468  42.9496

          k = 0.0000 0.1515 0.1298 (  2662 PWs)   bands (ev):

   -49.7647 -49.7481 -49.7143 -49.5409 -49.5366 -49.5243 -17.9626 -17.8877
   -17.8115 -16.9720 -16.9712 -16.9562 -16.7396 -16.7286 -16.6656 -16.6570
   -16.6507 -16.6190 -16.6094 -16.6007 -16.5736 -16.3219 -16.2834 -16.1918
    -8.5488  -8.5189  10.7392  10.7676  10.7852  10.7883  10.8111  10.8194
    19.6445  19.9671  20.0864  20.6303  20.6954  20.8666  22.1316  22.3365
    22.5700  22.6504  22.6506  22.7824  22.9758  23.1447  23.2487  23.5154
    23.8320  24.5987  24.7026  24.8403  25.2929  25.5361  25.6080  25.8049
    25.8574  25.9467  25.9811  26.0912  26.3615  26.6325  26.8160  28.0854
    28.2546  31.4414  31.5550  31.6125  32.4377  33.0055  33.2321  33.3185
    33.3535  33.8262  34.2634  35.0165  37.7459  38.5922  38.7374  39.1596
    39.3922  39.9043  41.3997  41.4034  41.4519  41.9437  42.1219  42.3488

          k = 0.0000 0.1515 0.2597 (  2666 PWs)   bands (ev):

   -49.7628 -49.7377 -49.7074 -49.5744 -49.5452 -49.5297 -17.9630 -17.8469
   -17.6373 -16.9564 -16.9551 -16.9265 -16.7738 -16.7456 -16.6893 -16.6607
   -16.6430 -16.6146 -16.6143 -16.6115 -16.5783 -16.5444 -16.3217 -16.1939
    -8.5346  -8.5145  10.7095  10.7566  10.7727  10.8036  10.8304  10.8402
    19.6740  20.0951  20.6061  20.7746  20.9385  21.0724  21.9204  22.0755
    22.3124  22.4806  22.6558  22.8971  22.9480  23.2947  23.6532  23.6952
    24.1200  24.5207  24.5431  24.6825  24.8478  25.1384  25.3632  25.3801
    25.5429  25.8547  25.9386  26.1715  26.4774  26.6489  27.0309  27.9323
    28.5756  30.5233  30.7843  31.0256  32.4561  33.4366  33.5100  33.5320
    33.9697  34.1229  34.9746  35.9339  37.3603  37.5120  38.8414  39.3648
    39.7808  40.1616  40.7789  41.3192  41.4571  42.0175  42.4582  42.5144

          k = 0.0000 0.1515 0.3895 (  2658 PWs)   bands (ev):

   -49.7442 -49.7273 -49.6581 -49.5999 -49.5422 -49.5351 -17.9676 -17.8479
   -17.2913 -16.9524 -16.9418 -16.8945 -16.8552 -16.7993 -16.7500 -16.7084
   -16.6734 -16.6391 -16.6148 -16.6075 -16.6018 -16.5869 -16.3218 -16.1831
    -8.5205  -8.5136  10.6904  10.7273  10.7768  10.8060  10.8588  10.8700
    19.7079  20.1106  20.7329  20.9866  21.2150  21.2595  21.9094  22.1583
    22.3174  22.5756  22.7036  22.8130  23.0000  23.4986  23.8882  23.9166
    24.0229  24.2675  24.2976  24.4487  24.5438  24.8224  25.0938  25.2104
    25.4793  25.9211  25.9845  26.3009  26.4952  26.5370  27.0552  27.1692
    28.9703  29.6858  30.5704  30.6036  33.1279  33.6058  33.6772  33.7177
    34.4057  34.4878  35.7756  36.5371  36.9349  37.2790  37.9388  39.2321
    39.8736  40.6023  40.6530  41.0656  41.4911  41.7667  42.2189  42.4255

          k = 0.0000 0.3030 0.0000 (  2677 PWs)   bands (ev):

   -49.7956 -49.7712 -49.6916 -49.6170 -49.5205 -49.5205 -17.9651 -17.9361
   -17.5526 -16.9750 -16.9750 -16.9123 -16.7733 -16.7400 -16.7400 -16.6494
   -16.6360 -16.6344 -16.6344 -16.6089 -16.6089 -16.5954 -16.2122 -16.2122
    -8.5363  -8.5175  10.6985  10.7426  10.7785  10.7785  10.8500  10.8500
    19.6174  19.7254  20.5088  21.0127  21.0127  21.2481  21.7390  22.2259
    22.2259  22.3008  22.7407  22.8835  22.9383  23.5986  23.5986  23.9121
    23.9741  24.6965  24.6965  24.7355  24.8678  24.8678  24.9498  25.3064
    25.4268  26.1465  26.1465  26.3748  26.4551  27.0004  27.0004  27.4142
    28.5974  30.3248  30.8501  30.8501  32.2296  33.1281  33.4473  34.0402
    34.0402  34.2486  36.2231  36.2231  36.6340  36.9322  39.1636  39.8585
[...]
   -23.7175 -23.5509 -23.5165 -23.4938 -23.4813 -23.4737 -23.4524 -23.4325
   -23.4296 -23.3981 -23.3938 -23.3855 -23.3848 -23.3835 -23.3783 -23.2701
   -16.6639 -16.6633   3.3981   3.4204   3.4258   3.4349   3.4362   3.4434
    14.6179  15.3202  15.3401  15.8075  15.8371  15.9083  15.9878  16.1229
    16.1491  16.4047  16.5585  16.5894  16.7084  16.7471  16.7929  17.0259
    17.1732  17.4167  17.4849  17.6111  17.6555  17.7838  17.8817  17.9692
    18.0538  18.0784  18.2492  18.4435  18.5186  19.2445  19.6794  20.3003
    21.0989  21.6182  23.0248  23.7996  25.4969  25.6357  26.2417  26.3255
    26.4704  27.0651  27.1484  27.2540  27.5733  27.6894  28.2785  28.6114
    31.7055  31.8511  32.4137  33.1394  33.6224  33.8384  34.0697  34.1922

          k = 0.3365 0.2804 0.0000 (  2652 PWs)   bands (ev):

   -55.8656 -55.8507 -55.8129 -55.8019 -55.7982 -55.7892 -24.0462 -23.8344
   -23.7535 -23.5153 -23.4987 -23.4970 -23.4751 -23.4483 -23.4469 -23.4298
   -23.4281 -23.3924 -23.3910 -23.3860 -23.3779 -23.3723 -23.3719 -23.2193
   -16.6672 -16.6651   3.3946   3.4194   3.4234   3.4371   3.4417   3.4450
    14.3024  15.1533  15.2229  15.4537  15.7373  15.7840  15.8872  15.9473
    16.0894  16.4397  16.5855  16.6561  16.7955  16.8928  17.0908  17.1852
    17.3908  17.4009  17.4634  17.5848  17.7064  17.8285  17.9367  18.1216
    18.1393  18.3273  18.4706  18.7823  18.7870  18.9060  19.5133  19.9842
    20.9798  21.7927  23.4643  23.9920  25.3661  25.5975  25.8291  26.1261
    26.1876  26.8944  27.0156  27.5104  27.8681  28.1276  28.1615  29.5484
    31.5100  32.3222  32.6542  32.7015  33.0166  33.3251  33.6653  33.9872

          k = 0.3365 0.2804 0.1202 (  2654 PWs)   bands (ev):

   -55.8604 -55.8570 -55.8257 -55.8060 -55.7956 -55.7850 -24.0078 -23.8351
   -23.7519 -23.5201 -23.4996 -23.4913 -23.4765 -23.4544 -23.4337 -23.4309
   -23.4234 -23.3955 -23.3953 -23.3877 -23.3843 -23.3811 -23.3787 -23.2555
   -16.6660 -16.6644   3.4010   3.4188   3.4224   3.4336   3.4380   3.4406
    14.5267  15.2391  15.3190  15.4689  15.7316  15.7508  15.9218  16.0018
    16.1235  16.3712  16.5551  16.6314  16.7062  16.8261  16.9326  17.1823
    17.2109  17.5028  17.5741  17.5979  17.7086  17.8705  17.9383  18.0976
    18.1638  18.2407  18.3590  18.5326  18.6267  19.2174  19.3122  20.2937
    21.1434  21.9507  22.9910  23.6864  25.3833  25.6614  26.0302  26.1621
    26.3137  26.8849  27.1367  27.3881  27.8255  28.0033  28.4422  29.0596
    31.3494  31.7036  32.4150  33.2760  33.4294  33.5492  34.0395  34.1391

          k = 0.3365 0.2804 0.2404 (  2651 PWs)   bands (ev):

   -55.8732 -55.8567 -55.8151 -55.8016 -55.7836 -55.7545 -23.8832 -23.8337
   -23.7536 -23.5195 -23.5044 -23.4845 -23.4758 -23.4615 -23.4245 -23.4154
   -23.4093 -23.4051 -23.3999 -23.3918 -23.3894 -23.3880 -23.3845 -23.3663
   -16.6633 -16.6626   3.4131   3.4185   3.4280   3.4305   3.4336   3.4358
    15.1566  15.4047  15.5753  15.5861  15.7040  15.7650  15.9375  16.0652
    16.1778  16.2827  16.3914  16.5045  16.6759  16.7614  16.8941  16.9667
    17.1044  17.5183  17.5856  17.6335  17.6471  17.7571  17.8789  17.9881
    18.0475  18.1869  18.2669  18.3114  18.4130  18.7034  19.7948  20.9244
    21.5641  22.2082  22.3133  22.8758  25.6490  25.8020  26.0876  26.2556
    26.4489  26.5733  27.0820  27.3614  27.5594  28.4388  28.5546  28.7874
    30.7884  31.4428  31.8878  33.5819  34.1392  34.2171  34.3812  34.5996

          k = 0.3365 0.2804 0.3605 (  2646 PWs)   bands (ev):

   -55.8560 -55.8391 -55.7979 -55.7938 -55.7830 -55.7497 -23.8331 -23.7486
   -23.7139 -23.5539 -23.5240 -23.4985 -23.4907 -23.4669 -23.4438 -23.4219
   -23.4134 -23.4095 -23.4011 -23.3991 -23.3897 -23.3857 -23.3825 -23.3813
   -16.6610 -16.6609   3.4169   3.4221   3.4303   3.4330   3.4342   3.4381
    15.4508  15.6833  15.7136  15.8559  15.8848  15.9013  16.0549  16.0927
    16.1666  16.3115  16.4060  16.4953  16.6284  16.6465  16.7228  16.7800
    17.1248  17.4090  17.4300  17.4736  17.4995  17.6487  17.8420  17.9009
    17.9589  18.0203  18.1160  18.1688  18.2144  18.4417  20.5070  21.2616
    21.5791  22.1281  22.2651  22.6747  25.2539  25.3847  26.3739  26.4480
    26.5136  26.5966  27.1708  27.4330  27.5707  28.3337  28.4376  28.5837
    31.0408  31.5593  31.8916  33.4256  33.8355  34.4532  34.8332  34.9094

          k = 0.3365-0.4206 0.0000 (  2650 PWs)   bands (ev):

   -55.8381 -55.8322 -55.8242 -55.8148 -55.7955 -55.7858 -24.0418 -23.7541
   -23.6405 -23.6280 -23.5102 -23.4878 -23.4811 -23.4722 -23.4475 -23.4461
   -23.4454 -23.3915 -23.3862 -23.3834 -23.3811 -23.3780 -23.3706 -23.2253
   -16.6646 -16.6643   3.3921   3.4203   3.4242   3.4403   3.4423   3.4485
    14.3175  15.1804  15.2106  15.7856  15.8048  15.9214  15.9747  16.2515
    16.3273  16.3422  16.5892  16.7217  16.8207  16.9076  16.9795  17.0229
    17.0810  17.2804  17.5253  17.5624  17.6833  17.7080  17.7534  17.9035
    17.9340  18.1177  18.5590  18.8082  18.8484  19.4528  19.4722  19.5174
    20.9981  21.2406  23.5016  24.8175  25.2855  25.6101  26.0851  26.2492
    26.5009  26.5416  26.8123  27.2724  27.8486  27.8930  28.3936  28.6708
    31.7340  32.6733  32.8847  33.0562  33.3921  33.4684  33.6509  34.1893

          k = 0.3365-0.4206 0.1202 (  2650 PWs)   bands (ev):

   -55.8417 -55.8369 -55.8185 -55.8098 -55.7907 -55.7837 -24.0056 -23.7525
   -23.6408 -23.6300 -23.5174 -23.4894 -23.4842 -23.4739 -23.4476 -23.4371
   -23.4331 -23.3942 -23.3864 -23.3863 -23.3835 -23.3812 -23.3781 -23.2533
   -16.6635 -16.6635   3.3961   3.4192   3.4243   3.4391   3.4423   3.4445
    14.5416  15.2802  15.3103  15.8213  15.8229  15.9630  15.9743  16.2583
    16.3171  16.3729  16.5247  16.6866  16.6900  16.7788  16.8144  16.9619
    17.1555  17.2801  17.4950  17.6010  17.6295  17.7598  17.7751  17.9667
    18.0330  18.0680  18.3718  18.4537  18.5813  19.3180  19.8812  19.8934
    21.1732  21.3754  23.1606  24.0686  25.5130  25.5464  26.1955  26.3862
    26.5599  27.0793  27.1073  27.2249  27.5149  27.6740  28.2270  28.5141
    31.7796  32.2096  32.5962  32.9194  33.5116  33.8018  33.9540  34.1627

          k = 0.3365-0.4206 0.2404 (  2640 PWs)   bands (ev):

   -55.8355 -55.8019 -55.7934 -55.7932 -55.7836 -55.7501 -23.8869 -23.7460
   -23.6312 -23.6253 -23.5182 -23.4878 -23.4870 -23.4493 -23.4408 -23.4196
   -23.4141 -23.4077 -23.3944 -23.3885 -23.3839 -23.3808 -23.3781 -23.3672
   -16.6611 -16.6610   3.4160   3.4244   3.4319   3.4336   3.4371   3.4456
    15.1756  15.5643  15.5946  15.8594  15.8759  15.9387  16.1195  16.2663
    16.2943  16.3568  16.4185  16.4603  16.5936  16.5992  16.7342  16.8050
    17.2669  17.2999  17.4474  17.5025  17.5163  17.5781  17.7790  17.9483
    17.9607  18.0938  18.1260  18.1849  18.2416  18.7180  20.6194  20.6289
    21.6545  21.7217  22.6216  22.9363  25.4453  25.4544  26.3567  26.5035
    26.5438  26.6177  27.0348  27.4081  27.8094  28.0626  28.2928  28.4534
    31.1967  31.5752  32.5560  32.7409  33.7275  34.4317  34.6789  34.8428

          k = 0.3365-0.4206 0.3605 (  2640 PWs)   bands (ev):

   -55.8142 -55.8087 -55.8021 -55.7868 -55.7706 -55.7596 -23.7493 -23.7147
   -23.6326 -23.6315 -23.5537 -23.5248 -23.4976 -23.4949 -23.4274 -23.4229
   -23.4121 -23.4113 -23.4048 -23.4017 -23.3906 -23.3894 -23.3808 -23.3774
   -16.6595 -16.6593   3.4216   3.4234   3.4330   3.4330   3.4410   3.4417
    15.8705  15.8884  15.9037  15.9709  15.9825  16.0440  16.1278  16.1481
    16.3437  16.3550  16.4202  16.4627  16.5099  16.5133  16.6101  16.6139
    17.2272  17.2304  17.2890  17.2980  17.3885  17.3944  17.6984  17.8338
    17.9112  17.9564  18.0345  18.0519  18.1319  18.1570  21.3756  21.3787
    21.9792  21.9874  22.2922  22.3536  24.6994  24.6996  26.5658  26.5711
    26.6045  26.6101  27.4019  27.5467  27.9348  27.9710  28.3479  28.4644
    31.4271  31.7190  32.6138  32.6337  33.6186  34.0726  34.9866  35.0070

     the Fermi energy is    26.5342 ev

!    total energy              =   -1745.20841437 Ry
     Harris-Foulkes estimate   =   -1745.20841459 Ry
     estimated scf accuracy    <       0.00000024 Ry

     The total energy is the sum of the following terms:

     one-electron contribution =    -304.20778943 Ry
     hartree contribution      =     261.82943857 Ry
     xc contribution           =    -167.47171389 Ry
     ewald contribution        =   -1534.99207227 Ry
     smearing contrib. (-TS)   =      -0.36627735 Ry

     convergence has been achieved in  10 iterations

     Forces acting on atoms (Ry/au):

     atom    1 type  1   force =     0.00000000    0.00000000    0.00000000
     atom    2 type  1   force =     0.00000000    0.00000000    0.00000000
     atom    3 type  1   force =     0.00000000    0.00000000    0.00000000
     atom    4 type  1   force =     0.00000000    0.00000000    0.00000000
     atom    5 type  1   force =     0.00000000    0.00000000    0.00000000
     atom    6 type  1   force =     0.00000000    0.00000000    0.00000000
     atom    7 type  2   force =     0.00000000    0.00000000    0.00000000
     atom    8 type  2   force =     0.00000000    0.00000000    0.00000000

     Total force =     0.000000     Total SCF correction =     0.000000


     entering subroutine stress ...

          total   stress  (Ry/bohr**3)                   (kbar)     P= -606.98
  -0.00412619   0.00000000   0.00000000       -606.98      0.00      0.00
   0.00000000  -0.00412619   0.00000000          0.00   -606.98      0.00
   0.00000000   0.00000000  -0.00412619          0.00      0.00   -606.98


     The maximum number of steps has been reached.

     End of BFGS Geometry Optimization
Begin final coordinates
     new unit-cell volume =   1044.15799 a.u.^3 (   154.72825 Ang^3 )

CELL_PARAMETERS (alat=  8.53457320)
   1.188703654   0.000000000   0.000000000
   0.000000000   1.188703654   0.000000000
   0.000000000   0.000000000   1.188703654

ATOMIC_POSITIONS (crystal)
Cr       0.000000000   0.500000000   0.250000000
Cr       0.000000000   0.500000000   0.750000000
Cr       0.500000000   0.750000000   0.000000000
Cr       0.500000000   0.250000000   0.000000000
Cr       0.750000000   0.000000000   0.500000000
Cr       0.250000000   0.000000000   0.500000000
Si       0.500000000   0.500000000   0.500000000
Si       0.000000000   0.000000000   0.000000000
End final coordinates



     A final scf calculation at the relaxed structure.
     The G-vectors are recalculated for the final unit cell
     Results may differ from those at the preceding step.
 
     Parallelization info
     --------------------
     sticks:   dense  smooth     PW     G-vecs:    dense   smooth      PW
     Min         328     328     93                 8932     8932    1373
     Max         329     329     94                 8933     8933    1376
     Sum        1313    1313    373                35729    35729    5497
 


     bravais-lattice index     =            0
     lattice parameter (alat)  =       8.5346  a.u.
     unit-cell volume          =    1044.1580 (a.u.)^3
     number of atoms/cell      =            8
     number of atomic types    =            2
     number of electrons       =       146.00
     number of Kohn-Sham states=           88
     kinetic-energy cutoff     =      40.0000  Ry
     charge density cutoff     =     160.0000  Ry
     convergence threshold     =      1.0E-06
     mixing beta               =       0.7000
     number of iterations used =            8  plain     mixing
     Exchange-correlation      = SLA-PZ-NOGX-NOGC ( 1 1 0 0 0)
     EXX-fraction              =        0.00

     celldm(1)=   8.534573  celldm(2)=   0.000000  celldm(3)=   0.000000
     celldm(4)=   0.000000  celldm(5)=   0.000000  celldm(6)=   0.000000

     crystal axes: (cart. coord. in units of alat)
               a(1) = (   1.188704   0.000000   0.000000 )  
               a(2) = (   0.000000   1.188704   0.000000 )  
               a(3) = (   0.000000   0.000000   1.188704 )  

     reciprocal axes: (cart. coord. in units 2 pi/alat)
               b(1) = (  0.841253  0.000000  0.000000 )  
               b(2) = (  0.000000  0.841253  0.000000 )  
               b(3) = (  0.000000  0.000000  0.841253 )  


     PseudoPot. # 1 for Dy read from file:
     /home/cwx6513/pp.La/Dy.UPF
     MD5 check sum: 9597327bec62616a94a14d07f3fd9936
     Pseudo is Norm-conserving, Zval = 20.0
     Generated in analytical, separable form
     Using radial grid of 1265 points,  6 beta functions with: 
                l(1) =   0
                l(2) =   0
                l(3) =   1
                l(4) =   1
                l(5) =   2
                l(6) =   3

     PseudoPot. # 2 for Pr read from file:
     /home/cwx6513/pp.La/Pr.UPF
     MD5 check sum: 70e2b4b153859e92c8c91247dfc63203
     Pseudo is Norm-conserving, Zval = 13.0
     Generated in analytical, separable form
     Using radial grid of 1255 points,  6 beta functions with: 
                l(1) =   0
                l(2) =   0
                l(3) =   1
                l(4) =   1
                l(5) =   2
                l(6) =   3

     atomic species   valence    mass     pseudopotential
        Cr            20.00    51.99610     Dy( 1.00)
        Si            13.00    28.08550     Pr( 1.00)

     48 Sym. Ops., with inversion, found (24 have fractional translation)



   Cartesian axes

     site n.     atom                  positions (alat units)
         1           Cr  tau(   1) = (   0.0000000   0.5943518   0.2971759  )
         2           Cr  tau(   2) = (   0.0000000   0.5943518   0.8915277  )
         3           Cr  tau(   3) = (   0.5943518   0.8915277   0.0000000  )
         4           Cr  tau(   4) = (   0.5943518   0.2971759   0.0000000  )
         5           Cr  tau(   5) = (   0.8915277   0.0000000   0.5943518  )
         6           Cr  tau(   6) = (   0.2971759   0.0000000   0.5943518  )
         7           Si  tau(   7) = (   0.5943518   0.5943518   0.5943518  )
         8           Si  tau(   8) = (   0.0000000   0.0000000   0.0000000  )

     number of k points=    48  gaussian smearing, width (Ry)=  0.1000
                       cart. coord. in units 2pi/alat
        k(    1) = (   0.0000000   0.0000000   0.0000000), wk =   0.0095238
        k(    2) = (   0.0000000   0.0000000   0.1201789), wk =   0.0190476
        k(    3) = (   0.0000000   0.0000000   0.2403579), wk =   0.0190476
        k(    4) = (   0.0000000   0.0000000   0.3605368), wk =   0.0190476
        k(    5) = (   0.0000000   0.1402088   0.0000000), wk =   0.0190476
        k(    6) = (   0.0000000   0.1402088   0.1201789), wk =   0.0380952
        k(    7) = (   0.0000000   0.1402088   0.2403579), wk =   0.0380952
        k(    8) = (   0.0000000   0.1402088   0.3605368), wk =   0.0380952
        k(    9) = (   0.0000000   0.2804175   0.0000000), wk =   0.0190476
        k(   10) = (   0.0000000   0.2804175   0.1201789), wk =   0.0380952
        k(   11) = (   0.0000000   0.2804175   0.2403579), wk =   0.0380952
        k(   12) = (   0.0000000   0.2804175   0.3605368), wk =   0.0380952
        k(   13) = (   0.0000000  -0.4206263   0.0000000), wk =   0.0095238
        k(   14) = (   0.0000000  -0.4206263   0.1201789), wk =   0.0190476
        k(   15) = (   0.0000000  -0.4206263   0.2403579), wk =   0.0190476
        k(   16) = (   0.0000000  -0.4206263   0.3605368), wk =   0.0190476
        k(   17) = (   0.1682505   0.0000000   0.0000000), wk =   0.0190476
        k(   18) = (   0.1682505   0.0000000   0.1201789), wk =   0.0380952
        k(   19) = (   0.1682505   0.0000000   0.2403579), wk =   0.0380952
        k(   20) = (   0.1682505   0.0000000   0.3605368), wk =   0.0380952
        k(   21) = (   0.1682505   0.1402088   0.0000000), wk =   0.0380952
        k(   22) = (   0.1682505   0.1402088   0.1201789), wk =   0.0761905
        k(   23) = (   0.1682505   0.1402088   0.2403579), wk =   0.0761905
        k(   24) = (   0.1682505   0.1402088   0.3605368), wk =   0.0761905
        k(   25) = (   0.1682505   0.2804175   0.0000000), wk =   0.0380952
        k(   26) = (   0.1682505   0.2804175   0.1201789), wk =   0.0761905
        k(   27) = (   0.1682505   0.2804175   0.2403579), wk =   0.0761905
        k(   28) = (   0.1682505   0.2804175   0.3605368), wk =   0.0761905
        k(   29) = (   0.1682505  -0.4206263   0.0000000), wk =   0.0190476
        k(   30) = (   0.1682505  -0.4206263   0.1201789), wk =   0.0380952
        k(   31) = (   0.1682505  -0.4206263   0.2403579), wk =   0.0380952
        k(   32) = (   0.1682505  -0.4206263   0.3605368), wk =   0.0380952
        k(   33) = (   0.3365010   0.0000000   0.0000000), wk =   0.0190476
        k(   34) = (   0.3365010   0.0000000   0.1201789), wk =   0.0380952
        k(   35) = (   0.3365010   0.0000000   0.2403579), wk =   0.0380952
        k(   36) = (   0.3365010   0.0000000   0.3605368), wk =   0.0380952
        k(   37) = (   0.3365010   0.1402088   0.0000000), wk =   0.0380952
        k(   38) = (   0.3365010   0.1402088   0.1201789), wk =   0.0761905
        k(   39) = (   0.3365010   0.1402088   0.2403579), wk =   0.0761905
        k(   40) = (   0.3365010   0.1402088   0.3605368), wk =   0.0761905
        k(   41) = (   0.3365010   0.2804175   0.0000000), wk =   0.0380952
        k(   42) = (   0.3365010   0.2804175   0.1201789), wk =   0.0761905
        k(   43) = (   0.3365010   0.2804175   0.2403579), wk =   0.0761905
        k(   44) = (   0.3365010   0.2804175   0.3605368), wk =   0.0761905
        k(   45) = (   0.3365010  -0.4206263   0.0000000), wk =   0.0190476
        k(   46) = (   0.3365010  -0.4206263   0.1201789), wk =   0.0380952
        k(   47) = (   0.3365010  -0.4206263   0.2403579), wk =   0.0380952
        k(   48) = (   0.3365010  -0.4206263   0.3605368), wk =   0.0380952

     Dense  grid:    35729 G-vectors     FFT dimensions: (  45,  45,  45)

     Largest allocated arrays     est. size (Mb)     dimensions
        Kohn-Sham Wavefunctions         1.51 Mb     (   1122,   88)
        NL pseudopotentials             2.74 Mb     (   1122,  160)
        Each V/rho on FFT grid          0.37 Mb     (  24300)
        Each G-vector array             0.07 Mb     (   8932)
        G-vector shells                 0.00 Mb     (    349)
     Largest temporary arrays     est. size (Mb)     dimensions
        Each subspace H/S matrix        0.12 Mb     (  88,  88)
        Each <psi_i|beta_j> matrix      0.21 Mb     (    160,   88)
        Arrays for rho mixing           2.97 Mb     (  24300,   8)

     Initial potential from superposition of free atoms
     Check: negative starting charge=   -0.000612

     starting charge   25.98109, renormalised to  146.00000

     negative rho (up, down):  0.344E-02 0.000E+00
     Starting wfc are   40 randomized atomic wfcs

     Writing output data file Prototype-La-cP8-Cr3Si.save

     total cpu time spent up to now is     1033.4 secs

     Self-consistent Calculation

     iteration #  1     ecut=    40.00 Ry     beta=0.70
     CG style diagonalization

 %%%%%%%%%%%%%%%%%%%%%%%%%%%%%%%%%%%%%%%%%%%%%%%%%%%%%%%%%%%%%%%%%%%%%%%%%%%%%%
     Error in routine c_bands (1):
     too many bands are not converged
 %%%%%%%%%%%%%%%%%%%%%%%%%%%%%%%%%%%%%%%%%%%%%%%%%%%%%%%%%%%%%%%%%%%%%%%%%%%%%%

     stopping ...

 %%%%%%%%%%%%%%%%%%%%%%%%%%%%%%%%%%%%%%%%%%%%%%%%%%%%%%%%%%%%%%%%%%%%%%%%%%%%%%
     Error in routine c_bands (1):
     too many bands are not converged
 %%%%%%%%%%%%%%%%%%%%%%%%%%%%%%%%%%%%%%%%%%%%%%%%%%%%%%%%%%%%%%%%%%%%%%%%%%%%%%

     stopping ...

 %%%%%%%%%%%%%%%%%%%%%%%%%%%%%%%%%%%%%%%%%%%%%%%%%%%%%%%%%%%%%%%%%%%%%%%%%%%%%%
     Error in routine c_bands (1):
     too many bands are not converged
 %%%%%%%%%%%%%%%%%%%%%%%%%%%%%%%%%%%%%%%%%%%%%%%%%%%%%%%%%%%%%%%%%%%%%%%%%%%%%%

     stopping ...

 %%%%%%%%%%%%%%%%%%%%%%%%%%%%%%%%%%%%%%%%%%%%%%%%%%%%%%%%%%%%%%%%%%%%%%%%%%%%%%
     Error in routine c_bands (1):
     too many bands are not converged
 %%%%%%%%%%%%%%%%%%%%%%%%%%%%%%%%%%%%%%%%%%%%%%%%%%%%%%%%%%%%%%%%%%%%%%%%%%%%%%

     stopping ...
