
     Program PWSCF v.5.0.2 starts on 22Mar2018 at 16:20:29 

     This program is part of the open-source Quantum ESPRESSO suite
     for quantum simulation of materials; please cite
         "P. Giannozzi et al., J. Phys.:Condens. Matter 21 395502 (2009);
          URL http://www.quantum-espresso.org", 
     in publications or presentations arising from this work. More details at
     http://www.quantum-espresso.org/quote.php

     Parallel version (MPI), running on     4 processors
     R & G space division:  proc/nbgrp/npool/nimage =       4

     Current dimensions of program PWSCF are:
     Max number of different atomic species (ntypx) = 10
     Max number of k-points (npk) =  40000
     Max angular momentum in pseudopotentials (lmaxx) =  3
     Waiting for input...
     Reading input from standard input

     Subspace diagonalization in iterative solution of the eigenvalue problem:
     a serial algorithm will be used

 
     Parallelization info
     --------------------
     sticks:   dense  smooth     PW     G-vecs:    dense   smooth      PW
     Min         233     233     69                 5311     5311     851
     Max         234     234     70                 5314     5314     854
     Sum         933     933    277                21247    21247    3407
 


     bravais-lattice index     =            0
     lattice parameter (alat)  =       8.5346  a.u.
     unit-cell volume          =     621.6493 (a.u.)^3
     number of atoms/cell      =            8
     number of atomic types    =            2
     number of electrons       =       116.00
     number of Kohn-Sham states=           70
     kinetic-energy cutoff     =      40.0000  Ry
     charge density cutoff     =     160.0000  Ry
     convergence threshold     =      1.0E-04
     mixing beta               =       0.7000
     number of iterations used =            8  plain     mixing
     Exchange-correlation      = SLA-PZ-NOGX-NOGC ( 1 1 0 0 0)
     EXX-fraction              =        0.00
     nstep                     =           50


     celldm(1)=   8.534573  celldm(2)=   0.000000  celldm(3)=   0.000000
     celldm(4)=   0.000000  celldm(5)=   0.000000  celldm(6)=   0.000000

     crystal axes: (cart. coord. in units of alat)
               a(1) = (   1.000000   0.000000   0.000000 )  
               a(2) = (   0.000000   1.000000   0.000000 )  
               a(3) = (   0.000000   0.000000   1.000000 )  

     reciprocal axes: (cart. coord. in units 2 pi/alat)
               b(1) = (  1.000000  0.000000  0.000000 )  
               b(2) = (  0.000000  1.000000  0.000000 )  
               b(3) = (  0.000000  0.000000  1.000000 )  


     PseudoPot. # 1 for Pr read from file:
     /home/cwx6513/pp.La/Pr.UPF
     MD5 check sum: 70e2b4b153859e92c8c91247dfc63203
     Pseudo is Norm-conserving, Zval = 13.0
     Generated in analytical, separable form
     Using radial grid of 1255 points,  6 beta functions with: 
                l(1) =   0
                l(2) =   0
                l(3) =   1
                l(4) =   1
                l(5) =   2
                l(6) =   3

     PseudoPot. # 2 for Tb read from file:
     /home/cwx6513/pp.La/Tb.UPF
     MD5 check sum: 3d6088a3f0cf7fd2e110c43f7f8e95c2
     Pseudo is Norm-conserving, Zval = 19.0
     Generated in analytical, separable form
     Using radial grid of 1263 points,  6 beta functions with: 
                l(1) =   0
                l(2) =   0
                l(3) =   1
                l(4) =   1
                l(5) =   2
                l(6) =   3

     atomic species   valence    mass     pseudopotential
        Cr            13.00    51.99610     Pr( 1.00)
        Si            19.00    28.08550     Tb( 1.00)

     48 Sym. Ops., with inversion, found (24 have fractional translation)



   Cartesian axes

     site n.     atom                  positions (alat units)
         1           Cr  tau(   1) = (   0.0000000   0.5000000   0.2500000  )
         2           Cr  tau(   2) = (   0.0000000   0.5000000   0.7500000  )
         3           Cr  tau(   3) = (   0.5000000   0.7500000   0.0000000  )
         4           Cr  tau(   4) = (   0.5000000   0.2500000   0.0000000  )
         5           Cr  tau(   5) = (   0.7500000   0.0000000   0.5000000  )
         6           Cr  tau(   6) = (   0.2500000   0.0000000   0.5000000  )
         7           Si  tau(   7) = (   0.5000000   0.5000000   0.5000000  )
         8           Si  tau(   8) = (   0.0000000   0.0000000   0.0000000  )

     number of k points=    48  gaussian smearing, width (Ry)=  0.1000
                       cart. coord. in units 2pi/alat
        k(    1) = (   0.0000000   0.0000000   0.0000000), wk =   0.0095238
        k(    2) = (   0.0000000   0.0000000   0.1428571), wk =   0.0190476
        k(    3) = (   0.0000000   0.0000000   0.2857143), wk =   0.0190476
        k(    4) = (   0.0000000   0.0000000   0.4285714), wk =   0.0190476
        k(    5) = (   0.0000000   0.1666667   0.0000000), wk =   0.0190476
        k(    6) = (   0.0000000   0.1666667   0.1428571), wk =   0.0380952
        k(    7) = (   0.0000000   0.1666667   0.2857143), wk =   0.0380952
        k(    8) = (   0.0000000   0.1666667   0.4285714), wk =   0.0380952
        k(    9) = (   0.0000000   0.3333333   0.0000000), wk =   0.0190476
        k(   10) = (   0.0000000   0.3333333   0.1428571), wk =   0.0380952
        k(   11) = (   0.0000000   0.3333333   0.2857143), wk =   0.0380952
        k(   12) = (   0.0000000   0.3333333   0.4285714), wk =   0.0380952
        k(   13) = (   0.0000000  -0.5000000   0.0000000), wk =   0.0095238
        k(   14) = (   0.0000000  -0.5000000   0.1428571), wk =   0.0190476
        k(   15) = (   0.0000000  -0.5000000   0.2857143), wk =   0.0190476
        k(   16) = (   0.0000000  -0.5000000   0.4285714), wk =   0.0190476
        k(   17) = (   0.2000000   0.0000000   0.0000000), wk =   0.0190476
        k(   18) = (   0.2000000   0.0000000   0.1428571), wk =   0.0380952
        k(   19) = (   0.2000000   0.0000000   0.2857143), wk =   0.0380952
        k(   20) = (   0.2000000   0.0000000   0.4285714), wk =   0.0380952
        k(   21) = (   0.2000000   0.1666667   0.0000000), wk =   0.0380952
        k(   22) = (   0.2000000   0.1666667   0.1428571), wk =   0.0761905
        k(   23) = (   0.2000000   0.1666667   0.2857143), wk =   0.0761905
        k(   24) = (   0.2000000   0.1666667   0.4285714), wk =   0.0761905
        k(   25) = (   0.2000000   0.3333333   0.0000000), wk =   0.0380952
        k(   26) = (   0.2000000   0.3333333   0.1428571), wk =   0.0761905
        k(   27) = (   0.2000000   0.3333333   0.2857143), wk =   0.0761905
        k(   28) = (   0.2000000   0.3333333   0.4285714), wk =   0.0761905
        k(   29) = (   0.2000000  -0.5000000   0.0000000), wk =   0.0190476
        k(   30) = (   0.2000000  -0.5000000   0.1428571), wk =   0.0380952
        k(   31) = (   0.2000000  -0.5000000   0.2857143), wk =   0.0380952
        k(   32) = (   0.2000000  -0.5000000   0.4285714), wk =   0.0380952
        k(   33) = (   0.4000000   0.0000000   0.0000000), wk =   0.0190476
        k(   34) = (   0.4000000   0.0000000   0.1428571), wk =   0.0380952
        k(   35) = (   0.4000000   0.0000000   0.2857143), wk =   0.0380952
        k(   36) = (   0.4000000   0.0000000   0.4285714), wk =   0.0380952
        k(   37) = (   0.4000000   0.1666667   0.0000000), wk =   0.0380952
        k(   38) = (   0.4000000   0.1666667   0.1428571), wk =   0.0761905
        k(   39) = (   0.4000000   0.1666667   0.2857143), wk =   0.0761905
        k(   40) = (   0.4000000   0.1666667   0.4285714), wk =   0.0761905
        k(   41) = (   0.4000000   0.3333333   0.0000000), wk =   0.0380952
        k(   42) = (   0.4000000   0.3333333   0.1428571), wk =   0.0761905
        k(   43) = (   0.4000000   0.3333333   0.2857143), wk =   0.0761905
        k(   44) = (   0.4000000   0.3333333   0.4285714), wk =   0.0761905
        k(   45) = (   0.4000000  -0.5000000   0.0000000), wk =   0.0190476
        k(   46) = (   0.4000000  -0.5000000   0.1428571), wk =   0.0380952
        k(   47) = (   0.4000000  -0.5000000   0.2857143), wk =   0.0380952
        k(   48) = (   0.4000000  -0.5000000   0.4285714), wk =   0.0380952

     Dense  grid:    21247 G-vectors     FFT dimensions: (  36,  36,  36)

     Largest allocated arrays     est. size (Mb)     dimensions
        Kohn-Sham Wavefunctions         0.73 Mb     (    683,   70)
        NL pseudopotentials             1.67 Mb     (    683,  160)
        Each V/rho on FFT grid          0.18 Mb     (  11664)
        Each G-vector array             0.04 Mb     (   5314)
        G-vector shells                 0.04 Mb     (   5314)
     Largest temporary arrays     est. size (Mb)     dimensions
        Each subspace H/S matrix        0.07 Mb     (  70,  70)
        Each <psi_i|beta_j> matrix      0.17 Mb     (    160,   70)
        Arrays for rho mixing           1.42 Mb     (  11664,   8)

     Initial potential from superposition of free atoms

     starting charge   77.94326, renormalised to  116.00000
     Starting wfc are  120 randomized atomic wfcs

     total cpu time spent up to now is        4.6 secs

     Self-consistent Calculation

     iteration #  1     ecut=    40.00 Ry     beta=0.70
     CG style diagonalization
     c_bands:  4 eigenvalues not converged
     c_bands:  1 eigenvalues not converged
     c_bands:  5 eigenvalues not converged
     c_bands:  5 eigenvalues not converged
     c_bands:  4 eigenvalues not converged
     c_bands:  1 eigenvalues not converged
     c_bands:  3 eigenvalues not converged
     c_bands:  4 eigenvalues not converged
     c_bands:  2 eigenvalues not converged
     c_bands:  1 eigenvalues not converged
     c_bands:  3 eigenvalues not converged
     c_bands:  2 eigenvalues not converged
     c_bands:  1 eigenvalues not converged
     c_bands:  5 eigenvalues not converged
     c_bands:  5 eigenvalues not converged
     c_bands:  4 eigenvalues not converged
     c_bands:  3 eigenvalues not converged
     c_bands:  4 eigenvalues not converged
     c_bands:  3 eigenvalues not converged
     c_bands:  3 eigenvalues not converged
     c_bands:  2 eigenvalues not converged
     c_bands:  2 eigenvalues not converged
     c_bands:  4 eigenvalues not converged
     c_bands:  2 eigenvalues not converged
     c_bands:  3 eigenvalues not converged
     c_bands:  1 eigenvalues not converged
     c_bands:  1 eigenvalues not converged
     c_bands:  4 eigenvalues not converged
     c_bands:  1 eigenvalues not converged
     c_bands:  3 eigenvalues not converged
     c_bands:  1 eigenvalues not converged
     c_bands:  1 eigenvalues not converged
     c_bands:  3 eigenvalues not converged
     ethr =  1.00E-02,  avg # of iterations = 13.5

     total cpu time spent up to now is       40.1 secs

     total energy              =      29.20570259 Ry
     Harris-Foulkes estimate   =   -1622.36782135 Ry
     estimated scf accuracy    <    1961.28940913 Ry

     iteration #  2     ecut=    40.00 Ry     beta=0.70
     CG style diagonalization
     ethr =  1.00E-02,  avg # of iterations = 19.3

     total cpu time spent up to now is       88.2 secs

     total energy              =   -1002.81956339 Ry
     Harris-Foulkes estimate   =   -1670.32965901 Ry
     estimated scf accuracy    <    1100.26111784 Ry

     iteration #  3     ecut=    40.00 Ry     beta=0.70
     CG style diagonalization
     c_bands:  2 eigenvalues not converged
     c_bands:  1 eigenvalues not converged
     c_bands:  1 eigenvalues not converged
     c_bands:  1 eigenvalues not converged
     c_bands:  1 eigenvalues not converged
     c_bands:  1 eigenvalues not converged
     c_bands:  1 eigenvalues not converged
     c_bands:  1 eigenvalues not converged
     ethr =  1.00E-02,  avg # of iterations =  9.4

     total cpu time spent up to now is      112.8 secs

     total energy              =   -1023.24083586 Ry
     Harris-Foulkes estimate   =   -1059.29839217 Ry
     estimated scf accuracy    <     134.76658745 Ry

     iteration #  4     ecut=    40.00 Ry     beta=0.70
     CG style diagonalization
     ethr =  1.00E-02,  avg # of iterations =  3.8

     total cpu time spent up to now is      122.5 secs

     total energy              =    -995.38801571 Ry
     Harris-Foulkes estimate   =   -1027.08259878 Ry
     estimated scf accuracy    <      57.82544611 Ry

     iteration #  5     ecut=    40.00 Ry     beta=0.70
     CG style diagonalization
     ethr =  1.00E-02,  avg # of iterations =  5.3

     total cpu time spent up to now is      136.2 secs

     total energy              =   -1009.30437112 Ry
     Harris-Foulkes estimate   =   -1010.04967210 Ry
     estimated scf accuracy    <       1.26395851 Ry

     iteration #  6     ecut=    40.00 Ry     beta=0.70
     CG style diagonalization
     ethr =  1.09E-03,  avg # of iterations =  4.7

     total cpu time spent up to now is      148.3 secs

     total energy              =   -1009.82172273 Ry
     Harris-Foulkes estimate   =   -1009.91623373 Ry
     estimated scf accuracy    <       0.14435408 Ry

     iteration #  7     ecut=    40.00 Ry     beta=0.70
     CG style diagonalization
     c_bands:  1 eigenvalues not converged
     c_bands:  1 eigenvalues not converged
     c_bands:  1 eigenvalues not converged
     c_bands:  1 eigenvalues not converged
     c_bands:  1 eigenvalues not converged
     c_bands:  1 eigenvalues not converged
     c_bands:  2 eigenvalues not converged
     c_bands:  1 eigenvalues not converged
     c_bands:  1 eigenvalues not converged
     ethr =  1.24E-04,  avg # of iterations =  4.6

     total cpu time spent up to now is      160.9 secs

     total energy              =   -1009.89996694 Ry
     Harris-Foulkes estimate   =   -1009.90794303 Ry
     estimated scf accuracy    <       0.06024324 Ry

     iteration #  8     ecut=    40.00 Ry     beta=0.70
     CG style diagonalization
     ethr =  5.19E-05,  avg # of iterations =  3.2

     total cpu time spent up to now is      169.0 secs

     total energy              =   -1009.86198926 Ry
     Harris-Foulkes estimate   =   -1009.90533470 Ry
     estimated scf accuracy    <       0.06265240 Ry

     iteration #  9     ecut=    40.00 Ry     beta=0.70
     CG style diagonalization
     c_bands:  1 eigenvalues not converged
     ethr =  5.19E-05,  avg # of iterations =  3.6

     total cpu time spent up to now is      178.3 secs

     total energy              =   -1009.88275662 Ry
     Harris-Foulkes estimate   =   -1009.88579155 Ry
     estimated scf accuracy    <       0.00736801 Ry

     iteration # 10     ecut=    40.00 Ry     beta=0.70
     CG style diagonalization
     c_bands:  1 eigenvalues not converged
     c_bands:  1 eigenvalues not converged
     c_bands:  1 eigenvalues not converged
     c_bands:  1 eigenvalues not converged
     c_bands:  1 eigenvalues not converged
     c_bands:  1 eigenvalues not converged
     c_bands:  1 eigenvalues not converged
     c_bands:  2 eigenvalues not converged
     ethr =  6.35E-06,  avg # of iterations =  3.9

     total cpu time spent up to now is      188.7 secs

     total energy              =   -1009.88282610 Ry
     Harris-Foulkes estimate   =   -1009.88367508 Ry
     estimated scf accuracy    <       0.00141451 Ry

     iteration # 11     ecut=    40.00 Ry     beta=0.70
     CG style diagonalization
     c_bands:  1 eigenvalues not converged
     c_bands:  1 eigenvalues not converged
     c_bands:  1 eigenvalues not converged
     c_bands:  1 eigenvalues not converged
     ethr =  1.22E-06,  avg # of iterations =  3.9

     total cpu time spent up to now is      198.7 secs

     End of self-consistent calculation

          k = 0.0000 0.0000 0.0000 (  2601 PWs)   bands (ev):

   -35.8649 -35.8562  -4.9144  -4.9144  -4.9144  -4.7199  -4.7199  -4.7199
    -4.2682  -2.5539  -2.5539   0.6234   0.6234   0.6234  11.5471  11.5471
    12.9369  15.1235  15.1235  15.1235  17.6399  17.6399  17.6399  19.5242
    19.5242  19.5242  19.8316  19.8316  19.8316  25.1425  25.1425  25.1425
    31.3376  31.3376  33.0057  33.0057  33.3954  33.3954  33.3954  33.7284
    33.7284  33.7284  33.7774  33.9962  33.9962  33.9962  34.9966  35.2104
    38.0816  38.0816  38.0816  39.1127  39.1127  40.8081  42.2660  42.2660
    42.2660  42.6361  42.6361  44.6405  44.6405  44.6405  45.5106  45.5108
    45.5107  48.0344  49.2257  49.5788  49.5790  49.5797

          k = 0.0000 0.0000 0.1429 (  2657 PWs)   bands (ev):

   -35.8792 -35.8661  -5.0004  -4.9857  -4.9057  -4.9057  -4.7738  -4.7738
    -3.9520  -2.5053  -2.4519   0.3507   0.6032   0.6032  11.5998  11.7753
    13.1189  15.0358  15.0358  15.3870  17.7230  17.7571  17.7571  19.1046
    19.6775  19.6775  19.6886  19.7826  19.7826  24.0766  25.1119  25.1119
    31.2843  31.7082  31.9358  32.8795  32.9140  32.9140  33.3466  33.5043
    33.5043  33.9414  33.9836  34.2323  34.2473  34.2473  35.6809  36.5742
    37.1240  38.5576  38.5576  38.9378  39.5542  41.4557  41.6805  41.6805
    42.1530  42.2639  42.4180  44.8253  44.8253  45.7561  46.0668  46.2343
    46.2343  47.8972  47.8974  48.0912  48.1912  48.3522

          k = 0.0000 0.0000 0.2857 (  2677 PWs)   bands (ev):

   -35.8808 -35.8726  -5.2376  -5.2001  -4.8826  -4.8826  -4.7916  -4.7916
    -3.4295  -2.4556  -2.1639  -0.3093   0.5600   0.5600  11.7296  11.9089
    14.2518  14.8698  14.8698  15.9803  17.9778  18.0000  18.0000  18.1443
    19.3259  19.6733  19.6733  20.0625  20.0625  21.7272  25.0413  25.0413
    30.7324  31.8311  31.8311  31.8331  31.9969  32.6041  33.1582  33.1582
    33.3358  33.8017  33.9452  34.9255  35.0286  35.0286  36.1400  36.8813
    38.5450  39.1561  39.1561  39.3443  39.9510  41.1170  41.1170  41.6130
    41.9659  42.0731  44.0424  44.9274  44.9274  45.5632  45.6596  45.6596
    46.4779  46.8949  47.5614  48.2695  48.2698  49.4576

          k = 0.0000 0.0000 0.4286 (  2658 PWs)   bands (ev):

   -35.8730 -35.8722  -5.3535  -5.3205  -4.8527  -4.8527  -4.7975  -4.7975
    -2.9053  -2.5571  -1.7077  -1.0680   0.5256   0.5256  11.8428  11.8896
    14.7552  14.7552  16.0134  16.9271  17.1278  18.1775  18.1775  18.3720
    18.8497  19.1044  19.5736  19.5736  20.4205  20.4205  24.9871  24.9871
    30.7563  30.9779  30.9779  31.4303  32.1738  32.4911  33.0625  33.0625
    33.4389  33.6147  33.8655  34.0631  35.7693  35.7693  37.3629  38.0905
    38.5260  38.9068  38.9068  40.2940  40.7040  41.1422  41.3272  41.3272
    42.1857  42.9392  43.9988  44.4963  44.4963  45.6583  45.6583  45.7888
    45.9627  46.0650  47.7634  48.0383  48.0383  50.5617

          k = 0.0000 0.1667 0.0000 (  2653 PWs)   bands (ev):

   -35.8777 -35.8662  -5.0298  -5.0270  -4.9017  -4.9017  -4.7728  -4.7728
    -3.8684  -2.4919  -2.4158   0.2601   0.5969   0.5969  11.6185  11.8219
    13.2260  15.0100  15.0100  15.4725  17.7544  17.7950  17.7950  18.9672
    19.6412  19.7288  19.7288  19.7693  19.7693  23.7407  25.1027  25.1027
    31.2194  31.7952  31.8247  32.7652  32.7652  32.8364  33.3378  33.4132
    33.4132  33.9235  33.9877  34.3675  34.3675  34.3979  35.8392  36.8590
    37.0047  38.6871  38.6871  38.8816  39.6322  41.5520  41.5520  41.7415
    42.1044  42.2172  42.3574  44.8529  44.8529  45.8063  46.2582  46.2583
    46.4079  47.8697  47.8709  47.9730  47.9732  48.5131

          k = 0.0000 0.1667 0.1429 (  2662 PWs)   bands (ev):

   -35.8808 -35.8670  -5.1428  -5.0695  -4.9289  -4.8878  -4.7841  -4.7787
    -3.6769  -2.4125  -2.3559   0.2435   0.3335   0.5777  11.7316  12.1237
    13.2735  14.9665  15.2671  15.4164  17.5176  17.7440  18.2026  19.1866
    19.3340  19.3880  19.6990  19.8430  19.9651  23.7117  24.0503  25.0724
    31.3382  31.8609  31.9921  32.0668  32.6995  32.7755  32.8941  32.9412
    33.2984  33.5339  33.5866  34.7365  34.8385  35.6665  36.2805  37.1737
    37.5796  38.0045  39.0084  39.0679  40.1657  41.0691  41.3665  41.8597
    41.9863  42.0740  42.7022  44.9301  45.4242  45.6977  46.0252  46.1302
    46.9050  46.9472  47.2258  48.0503  48.8378  48.9846

          k = 0.0000 0.1667 0.2857 (  2666 PWs)   bands (ev):

   -35.8779 -35.8715  -5.3135  -5.2246  -4.9130  -4.8705  -4.7888  -4.7867
    -3.2412  -2.3429  -2.1129  -0.3172   0.2205   0.5346  11.8147  12.5123
    14.1575  14.8724  15.2738  15.8749  17.5117  17.5599  18.4425  18.6709
    19.1193  19.5535  19.6805  20.0341  20.1604  21.7334  23.6680  25.0052
    30.9010  31.5437  31.7888  31.9190  32.1286  32.3816  32.6888  32.6937
    32.9940  33.4438  33.5543  35.4132  35.6280  36.4331  36.5023  37.4556
    38.5578  38.7475  39.4037  39.6199  40.5203  40.9709  40.9744  41.7106
    41.7452  43.0073  43.9608  44.4441  44.6001  44.6776  45.5524  45.6296
    46.2958  47.9381  47.9424  48.6532  49.1149  49.3787

          k = 0.0000 0.1667 0.4286 (  2658 PWs)   bands (ev):

   -35.8745 -35.8710  -5.4042  -5.3519  -4.8693  -4.8394  -4.8031  -4.7996
    -2.7691  -2.4407  -1.6899  -1.0519   0.2011   0.5001  11.8662  12.5850
    14.8017  15.0059  16.0657  16.6239  17.1045  17.6866  18.2046  18.2812
    19.0726  19.2603  19.4563  20.0001  20.1827  20.4716  23.6164  24.9528
    30.5883  30.9453  31.0396  31.5945  32.2718  32.5337  32.5806  32.7140
    32.8329  33.4212  33.8453  34.6169  36.3585  36.5721  37.4677  38.3906
    38.6192  39.2518  39.3435  40.5120  40.5181  41.0916  41.8279  41.8721
    42.0916  42.6149  43.4416  43.9316  44.1917  44.6615  45.3044  45.8860
    46.8259  47.6357  47.8629  48.1516  49.2985  49.3207

          k = 0.0000 0.3333 0.0000 (  2677 PWs)   bands (ev):

   -35.8803 -35.8728  -5.2966  -5.2426  -4.8766  -4.8766  -4.7977  -4.7977
    -3.2471  -2.4651  -2.0310  -0.5645   0.5460   0.5460  11.7736  11.9056
    14.8210  14.8210  14.8291  16.2235  17.7938  18.0739  18.0739  18.0959
    19.1744  19.6342  19.6342  20.2026  20.2026  20.8551  25.0166  25.0166
    30.6477  31.4780  31.4780  31.8894  31.9313  32.5621  33.1109  33.1109
    33.3592  33.7423  33.9142  34.6157  35.3026  35.3026  36.5230  37.3902
    38.4009  39.1590  39.1590  40.1416  40.2550  41.1139  41.1139  41.2639
    41.9506  42.0575  44.8536  44.8536  45.1531  45.1557  45.5430  45.5430
    46.1212  46.5653  47.4769  48.1138  48.1137  49.8025

          k = 0.0000 0.3333 0.1429 (  2660 PWs)   bands (ev):

   -35.8755 -35.8711  -5.3410  -5.2617  -4.8971  -4.8625  -4.7886  -4.7844
    -3.1213  -2.3806  -1.9987  -0.5652   0.2949   0.5269  11.8318  12.3715
    14.6515  14.8377  15.2269  16.1253  17.4772  17.6165  18.4287  18.4413
    19.0849  19.5386  19.8825  19.9656  20.2593  20.9055  23.9773  24.9937
    30.7827  31.2786  31.4499  31.8816  32.1053  32.4627  32.7874  32.8603
    32.9743  33.4709  33.6410  35.0559  35.7643  36.2398  36.6954  37.8002
    38.6354  38.9743  39.2821  40.2143  40.6321  40.9258  40.9577  41.6386
    41.7439  42.7420  44.3311  44.4773  44.6752  44.9542  45.1198  45.6719
    45.8064  47.6145  47.9935  48.4165  49.4108  49.5500

          k = 0.0000 0.3333 0.2857 (  2658 PWs)   bands (ev):

   -35.8762 -35.8700  -5.4418  -5.3503  -4.8834  -4.8420  -4.7969  -4.7887
    -2.8061  -2.1732  -1.9554  -0.5858  -0.2784   0.4834  11.8689  13.6812
    14.7384  14.8747  15.7241  15.9082  17.2477  17.3626  18.0286  18.6188
    19.3722  19.4131  19.6571  20.2729  20.4322  20.8499  21.7405  24.9316
    30.7821  31.1310  31.3526  31.4125  31.7725  32.0882  32.3892  32.6662
    32.7491  33.3535  33.8394  36.0926  36.5650  36.9266  37.5630  38.0985
    38.6656  38.8791  39.1687  40.4770  40.6947  40.7518  41.6249  42.3160
    42.5963  42.7766  42.8229  43.7622  44.3523  45.0065  45.6064  46.4709
    46.6342  48.1232  48.1566  48.6891  49.2385  49.6113

          k = 0.0000 0.3333 0.4286 (  2654 PWs)   bands (ev):

   -35.8727 -35.8709  -5.5055  -5.4263  -4.8583  -4.8265  -4.8102  -4.7867
    -2.4318  -2.1407  -1.7450  -1.0287  -0.4691   0.4489  11.9180  14.4220
    14.9039  15.4642  16.0410  16.2402  17.2467  17.3524  17.6245  18.2793
    18.8347  19.2985  19.7156  20.1012  20.4149  20.6167  20.8887  24.8777
    30.3862  30.7863  30.8226  31.4452  31.4500  31.9198  32.4769  32.6293
    32.8742  33.3996  34.6642  36.0436  36.9876  37.3074  37.6387  37.9401
    38.4833  39.4408  39.9509  40.2699  40.6385  40.8330  41.8154  42.1776
    42.2411  42.9170  42.9585  44.5202  44.6760  45.5356  45.8066  46.7910
    47.2607  47.9195  48.3067  48.6146  48.8574  49.2120

          k = 0.0000-0.5000 0.0000 (  2666 PWs)   bands (ev):

   -35.8740 -35.8740  -5.3579  -5.3579  -4.8458  -4.8458  -4.8091  -4.8091
    -2.7011  -2.7011  -1.4110  -1.4110   0.5206   0.5206  11.8716  11.8716
    14.7399  14.7399  16.6346  16.6346  17.8863  17.8863  18.2025  18.2025
    18.6047  18.6047  19.5569  19.5569  20.4759  20.4759  24.9786  24.9786
    30.8559  30.8559  31.0445  31.0445  32.3550  32.3550  33.0526  33.0526
    33.5216  33.5216  33.8922  33.8922  35.9072  35.9072  37.7942  37.7942
    38.7868  38.7868  39.4231  39.4231  41.0434  41.0434  41.4195  41.4195
    42.7885  42.7885  44.3615  44.3615  44.6124  44.6124  45.7285  45.7286
    45.8354  45.8356  48.0610  48.0611  49.5471  49.5474

          k = 0.0000-0.5000 0.1429 (  2666 PWs)   bands (ev):

   -35.8741 -35.8741  -5.3978  -5.3716  -4.8622  -4.8382  -4.8145  -4.8081
    -2.6105  -2.6097  -1.4572  -1.3389   0.2785   0.5013  11.8722  12.4070
    14.7781  14.9473  16.5318  16.6499  17.5980  17.8154  17.8178  18.2227
    18.4953  19.1663  19.4672  19.9061  20.2737  20.5098  23.9374  24.9518
    30.5282  30.8324  31.1301  31.3729  32.3623  32.4520  32.6967  32.8680
    32.9077  33.4349  33.9438  34.2511  36.3673  36.3779  37.7659  38.2376
    38.5860  39.2289  39.7185  39.9091  40.7147  41.2422  41.7712  41.8704
    42.1846  43.2896  43.5611  43.5615  43.7234  44.8182  45.1424  45.7597
    46.7507  47.5196  47.8419  48.5880  49.1400  49.1885

          k = 0.0000-0.5000 0.2857 (  2658 PWs)   bands (ev):

   -35.8726 -35.8725  -5.4847  -5.4186  -4.8579  -4.8301  -4.8158  -4.7948
    -2.3958  -2.3366  -1.5797  -1.2060  -0.2807   0.4577  11.9053  13.8456
    14.8734  15.3845  16.1919  16.6837  17.4685  17.5786  17.6759  17.6766
    18.5854  19.3217  19.7819  19.9330  20.3372  20.6069  21.6761  24.8909
    30.3332  30.7416  31.0518  31.5588  31.7475  31.7742  32.5377  32.6546
    32.6774  33.3992  34.6140  35.2747  37.2401  37.5354  37.5516  37.8304
    38.3398  40.1565  40.1901  40.3027  40.5423  40.6114  41.8701  42.0263
    42.1506  42.6012  42.7069  44.5584  44.8120  45.2504  45.5247  46.0643
    47.5703  47.6464  48.4349  48.6308  48.9528  49.3430

          k = 0.0000-0.5000 0.4286 (  2662 PWs)   bands (ev):

   -35.8733 -35.8733  -5.5602  -5.4742  -4.8488  -4.8153  -4.8135  -4.7834
    -2.1901  -1.9133  -1.7254  -1.3201  -0.7018   0.4234  11.9657  14.9633
    15.5692  15.6625  16.1557  16.7603  17.3017  17.3282  17.6005  17.6464
    18.2198  19.2631  19.3133  19.5495  20.4812  20.5391  20.7237  24.8368
    30.1933  30.2942  30.4426  31.1329  31.8359  31.8592  32.3430  32.9490
    32.9552  33.4567  35.9897  36.2994  36.5284  37.3222  37.6037  37.9556
    38.1325  39.5149  39.5764  39.9258  40.0778  41.0311  41.9164  42.0878
    42.9701  43.4497  44.7152  44.7172  44.9379  45.8069  46.1398  46.8693
    47.2712  47.9596  48.4004  48.7117  48.8046  49.0350

          k = 0.2000 0.0000 0.0000 (  2661 PWs)   bands (ev):

   -35.8812 -35.8661  -5.1001  -5.0674  -4.8953  -4.8953  -4.7818  -4.7818
    -3.7528  -2.4745  -2.3571   0.1174   0.5873   0.5873  11.6475  11.8697
    13.4339  14.9707  14.9707  15.6017  17.8061  17.8517  17.8517  18.7540
    19.5650  19.7420  19.7420  19.8163  19.8163  23.2210  25.0857  25.0857
    31.0803  31.7592  31.9005  32.5228  32.5228  32.7686  33.3117  33.3117
    33.3295  33.8941  33.9841  34.5442  34.5442  34.6513  36.0920  36.4915
    37.6375  38.7951  38.8601  38.8601  39.7226  41.3872  41.3872  42.0131
    42.0422  42.2687  42.3606  44.8856  44.8856  45.8271  46.1385  46.1386
    46.8510  47.4313  47.5759  48.2652  48.2651  48.8432

          k = 0.2000 0.0000 0.1429 (  2667 PWs)   bands (ev):

   -35.8794 -35.8704  -5.1861  -5.1128  -4.9314  -4.8860  -4.7859  -4.7790
    -3.5749  -2.3937  -2.3044   0.1036   0.3250   0.5677  11.7545  12.2194
    13.4345  14.9404  15.2437  15.5362  17.5137  17.7289  18.2911  19.0164
    19.2531  19.4892  19.6685  19.9094  19.9832  23.2000  24.0344  25.0573
    31.2077  31.8309  32.0284  32.1227  32.4751  32.4999  32.8618  32.9159
    33.2125  33.5311  33.5518  34.9484  35.0185  35.8486  36.5272  36.8905
    38.0483  38.1761  38.9492  39.2038  40.3248  40.9366  41.2441  41.8184
    41.9552  42.4063  42.7886  44.8506  45.2728  45.6317  45.6689  46.1558
    46.7266  47.1456  47.5336  48.3693  48.7157  48.9748

          k = 0.2000 0.0000 0.2857 (  2659 PWs)   bands (ev):

   -35.8760 -35.8708  -5.3389  -5.2448  -4.9079  -4.8675  -4.7846  -4.7827
    -3.1668  -2.2986  -2.0961  -0.3212   0.0891   0.5246  11.8246  12.7765
    14.1651  14.8732  15.4028  15.8360  17.4537  17.4865  18.4046  18.7495
    19.1922  19.5130  19.5680  20.0986  20.2075  21.7242  23.1657  24.9923
    30.9119  31.4729  31.7736  31.8741  32.1698  32.3986  32.4388  32.5142
    32.9231  33.3942  33.5545  35.6054  35.8159  36.6025  36.8455  37.6981
    38.3320  38.7078  39.4339  39.7592  40.5286  40.9134  41.3129  41.6572
    41.8279  43.1952  43.9502  44.0463  44.4827  44.5761  45.3536  45.9041
    46.5414  47.8267  48.1456  48.8858  49.1675  49.1855

          k = 0.2000 0.0000 0.4286 (  2660 PWs)   bands (ev):

   -35.8747 -35.8714  -5.4227  -5.3667  -4.8715  -4.8365  -4.8041  -4.8040
    -2.7114  -2.3944  -1.6908  -1.0426   0.0755   0.4904  11.8716  12.8825
    14.8197  15.0979  16.0830  16.5143  17.1187  17.5979  18.0796  18.2937
    19.0521  19.4177  19.4341  20.0931  20.1068  20.4937  23.1114  24.9390
    30.5451  30.9302  31.0678  31.6071  32.2039  32.4416  32.4617  32.5822
    32.7534  33.3998  33.9164  34.8600  36.5534  36.9066  37.4444  38.3193
    38.6215  39.4057  39.5183  40.4505  40.5719  41.1099  41.8314  41.9966
    42.0338  42.6514  43.0409  43.9039  44.5698  44.5743  45.3535  45.8935
    46.8960  47.6978  48.1618  48.3542  49.1555  49.3967

          k = 0.2000 0.1667 0.0000 (  2672 PWs)   bands (ev):

   -35.8791 -35.8731  -5.2154  -5.1264  -4.9425  -4.8916  -4.7841  -4.7769
    -3.5182  -2.3687  -2.2858   0.0977   0.2389   0.5611  11.7679  12.3418
    13.4658  14.9305  15.3232  15.5205  17.4859  17.6957  18.3561  19.0739
    19.2023  19.4044  19.6423  19.9421  20.0196  23.1884  23.7074  25.0467
    31.1946  31.8362  31.9660  32.1566  32.4604  32.4765  32.7110  32.7605
    33.1652  33.4974  33.5058  35.0600  35.1457  36.0933  36.6773  36.9588
    38.0138  38.2471  38.9327  39.2873  40.5431  40.8465  41.1879  41.7956
    41.8906  42.5104  42.9162  44.7719  45.1795  45.3387  45.7807  46.1185
    46.9363  47.0817  47.4591  48.6047  48.7133  49.1036

          k = 0.2000 0.1667 0.1429 (  2665 PWs)   bands (ev):

   -35.8788 -35.8704  -5.2634  -5.1092  -5.0305  -4.8540  -4.7954  -4.7898
    -3.3655  -2.2854  -2.2381   0.0871   0.2222   0.3042  12.2128  12.4076
    13.4048  15.2112  15.3223  15.4974  17.0269  18.1860  18.3119  18.8105
    19.2797  19.4937  19.6388  19.9002  19.9990  23.1740  23.6816  24.0055
    31.4096  31.7209  31.9703  32.0576  32.1855  32.3976  32.4595  32.5728
    32.9412  33.2739  33.5107  35.3625  35.8756  36.1984  37.0709  37.4399
    38.1399  38.7464  38.7662  39.7837  40.3475  40.7113  40.8680  41.5494
    42.6633  42.6733  42.9741  44.4316  44.5521  45.4305  45.5755  46.8054
    47.0176  47.5018  47.7882  48.1089  48.4061  48.4920

          k = 0.2000 0.1667 0.2857 (  2655 PWs)   bands (ev):

   -35.8770 -35.8674  -5.3622  -5.2177  -5.0328  -4.8249  -4.8041  -4.7986
    -2.9990  -2.1943  -2.0350  -0.3280   0.0684   0.1920  12.4942  12.8361
    14.0262  15.2815  15.4592  15.8172  16.6879  18.1633  18.2894  18.5251
    19.1250  19.5969  19.7844  19.9593  20.1470  21.7289  23.1372  23.6292
    31.1828  31.2426  31.6660  31.7706  31.9921  32.2399  32.4031  32.4343
    32.6720  33.2104  33.6090  35.8975  36.5185  36.9648  37.0899  38.1530
    38.5931  39.1016  39.7610  40.1161  40.4083  40.5162  41.2270  41.7077
    42.6834  43.1865  43.6269  43.9844  44.0532  44.8908  45.3127  45.9386
    46.9476  47.3875  47.8180  47.9351  48.5867  48.9414

          k = 0.2000 0.1667 0.4286 (  2655 PWs)   bands (ev):

   -35.8727 -35.8707  -5.4117  -5.3629  -4.9540  -4.8838  -4.7918  -4.7854
    -2.5795  -2.2848  -1.6372  -1.0442   0.0538   0.1709  12.5834  12.8849
    15.0509  15.2171  16.0833  16.4614  16.5944  17.8429  17.9105  18.6169
    18.7957  19.0532  19.9281  20.0193  20.2011  20.2889  23.0864  23.5780
    30.6079  30.8422  31.3930  31.6505  31.8836  31.9840  32.3724  32.3999
    32.9446  33.2607  34.0808  35.0267  36.9833  37.1869  37.8074  38.9068
    39.2204  39.4013  39.9456  40.2474  40.4494  41.2284  41.7736  42.3279
    42.4171  42.7597  43.3566  43.8358  44.1638  44.4143  44.7285  45.8993
    46.4650  47.4552  47.8673  48.2321  48.3275  49.2165

          k = 0.2000 0.3333 0.0000 (  2656 PWs)   bands (ev):

   -35.8760 -35.8693  -5.3793  -5.2895  -4.8929  -4.8531  -4.7929  -4.7860
    -3.0125  -2.3063  -1.9788  -0.5664   0.0830   0.5108  11.8437  12.8336
    14.6466  14.8513  15.4282  16.0405  17.3627  17.4860  18.3051  18.5708
    19.2798  19.4693  19.6720  20.1149  20.3137  20.9066  23.1442  24.9704
    30.8255  31.1798  31.4254  31.8325  32.1733  32.4248  32.4361  32.5525
    32.8489  33.3901  33.6340  35.4692  36.0821  36.6733  36.9875  38.1729
    38.5770  38.7616  39.2994  40.3155  40.6222  40.8445  41.3853  41.7306
    41.8864  42.9979  43.6426  44.3227  44.4746  44.7589  45.2675  45.8159
    46.0701  48.1228  48.3163  48.6597  49.2356  49.4711

          k = 0.2000 0.3333 0.1429 (  2657 PWs)   bands (ev):

   -35.8763 -35.8688  -5.3868  -5.2776  -4.9909  -4.8350  -4.7994  -4.7925
    -2.8956  -2.2299  -1.9341  -0.5691   0.0669   0.2646  12.3601  12.8534
    14.5111  15.1886  15.4940  16.0211  16.7242  18.0421  18.1420  18.5887
    19.0102  19.6661  19.8747  19.9697  20.1877  20.9462  23.1238  23.9355
    30.9814  31.0657  31.5008  31.7499  32.0252  32.2346  32.3722  32.4518
    32.7279  33.2288  33.7803  35.6354  36.5986  36.9543  37.1147  38.4555
    38.9653  39.1874  39.5230  40.1244  40.4148  40.9547  41.2844  41.9313
    42.3862  43.2545  43.3200  43.9852  44.4758  44.7604  45.2674  45.4584
    46.5294  47.6171  47.8553  48.1108  48.8665  49.1452

          k = 0.2000 0.3333 0.2857 (  2656 PWs)   bands (ev):

   -35.8749 -35.8689  -5.4170  -5.2870  -5.0610  -4.8605  -4.8284  -4.7911
    -2.6045  -2.0358  -1.8612  -0.5770  -0.3174   0.0366  12.8688  13.7508
    14.4952  15.5392  15.7373  15.9456  16.3157  17.8284  18.1993  18.5293
    19.1298  19.3762  19.7837  20.1095  20.3004  20.9091  21.6999  23.0734
    30.8464  31.0594  31.3119  31.5248  31.8228  31.9431  32.2991  32.5473
    32.6787  33.1147  33.8418  36.3606  36.9778  37.5036  37.7556  38.3360
    39.4131  39.4366  39.8392  40.2624  40.6708  41.3569  41.7472  42.3368
    42.8030  42.8965  43.4669  43.6925  44.1115  44.5578  45.6899  45.9802
    46.7415  46.8064  47.1258  47.9070  48.0432  48.5631

          k = 0.2000 0.3333 0.4286 (  2643 PWs)   bands (ev):

   -35.8691 -35.8688  -5.4328  -5.3702  -4.9965  -4.9008  -4.8280  -4.7971
    -2.2606  -2.0015  -1.6198  -1.0193  -0.5209   0.0185  12.9291  14.4157
    15.2550  15.5791  15.8445  16.1596  16.7523  17.6445  17.9676  18.4310
    18.7973  18.9893  19.6111  20.0774  20.1845  20.3912  20.8758  23.0259
    30.6002  30.7828  31.2115  31.5254  31.6871  31.9084  32.1092  32.5317
    32.5555  33.3727  34.6104  35.9537  37.2684  37.5317  37.9159  38.8424
    39.3313  39.7914  39.9948  40.8320  41.0256  41.5453  41.9846  42.3591
    42.5967  42.9289  43.1848  43.4719  44.2167  45.0676  45.7311  46.0616
    46.4320  47.0293  47.3521  47.9206  48.2691  48.5235

          k = 0.2000-0.5000 0.0000 (  2658 PWs)   bands (ev):

   -35.8724 -35.8724  -5.4330  -5.3895  -4.8589  -4.8305  -4.8061  -4.8030
    -2.5329  -2.5219  -1.4991  -1.2826   0.0737   0.4854  11.8796  12.8929
    14.8118  15.1152  16.4147  16.6608  17.5423  17.6568  17.7629  17.9941
    18.5772  19.4029  19.4763  20.0995  20.0998  20.5435  23.1046  24.9308
    30.4359  30.8085  31.1816  31.4486  32.2083  32.4449  32.5225  32.5339
    32.7315  33.4049  34.1002  34.5947  36.7080  36.9273  37.7036  38.1721
    38.4891  39.6610  39.9588  40.1688  40.8201  41.1159  41.4068  42.0847
    42.1103  42.8602  43.2454  43.6902  44.2494  44.6437  45.1543  46.0274
    47.2353  47.5521  48.3023  48.3858  49.0372  49.2328

          k = 0.2000-0.5000 0.1429 (  2658 PWs)   bands (ev):

   -35.8724 -35.8723  -5.4106  -5.3904  -4.9092  -4.9007  -4.7955  -4.7892
    -2.4437  -2.4324  -1.4199  -1.3211   0.0570   0.2473  12.4108  12.8872
    15.0455  15.1717  16.3448  16.4764  17.3849  17.4274  18.0237  18.0431
    18.7228  18.9300  19.8956  20.0574  20.1655  20.3555  23.0854  23.8975
    30.5600  30.6554  31.4954  31.5498  31.8610  32.1139  32.3785  32.4045
    32.9309  33.3162  34.3456  34.5827  36.9332  37.1100  38.3476  38.3538
    39.0456  39.6164  40.0141  40.0504  41.1656  41.4065  41.5817  41.6318
    42.4594  42.9916  43.3019  43.7580  44.2446  44.3627  44.6365  45.5605
    47.2011  47.4512  47.8773  48.0055  48.8231  48.8744

          k = 0.2000-0.5000 0.2857 (  2648 PWs)   bands (ev):

   -35.8701 -35.8700  -5.4201  -5.3864  -4.9600  -4.9459  -4.8037  -4.7943
    -2.2300  -2.1827  -1.4255  -1.2592  -0.3162   0.0248  12.9178  13.8341
    15.3351  15.4413  16.0008  16.3170  17.3495  17.4674  17.8526  18.0218
    18.7132  18.9072  19.7395  20.0641  20.1772  20.3487  21.6461  23.0361
    30.6800  30.7095  31.1527  31.5358  31.7910  31.8522  32.3012  32.4143
    32.6134  33.3252  34.8133  35.0839  37.5604  37.7668  37.8773  38.5915
    39.5345  40.0297  40.0304  40.8900  41.0877  41.2422  41.5187  41.8861
    42.8276  42.9914  43.3632  43.6475  44.3699  44.8346  45.2149  45.5824
    46.5449  46.6870  47.5578  47.7385  48.7067  49.1827

          k = 0.2000-0.5000 0.4286 (  2646 PWs)   bands (ev):

   -35.8694 -35.8692  -5.4588  -5.3935  -4.9397  -4.9291  -4.8599  -4.8208
    -2.0460  -1.7639  -1.5480  -1.2789  -0.8135   0.0047  12.9782  15.2951
    15.4404  15.6085  16.0498  16.6906  17.4581  17.4918  17.6412  17.8413
    18.3142  19.0390  19.2731  19.4610  20.1729  20.1739  20.4669  22.9907
    30.5818  30.7008  31.0238  31.3302  31.4523  32.0269  32.0815  32.6424
    32.6496  33.4748  35.8162  36.1743  36.7119  37.1446  37.5928  38.8193
    39.7107  39.7933  39.9270  41.2621  41.5560  41.5999  41.9800  42.0830
    42.2412  42.5178  43.2179  43.8572  45.3250  45.5401  46.0114  46.2061
    46.7860  46.8186  47.5208  48.0957  48.1274  49.1670

          k = 0.4000 0.0000 0.0000 (  2657 PWs)   bands (ev):

   -35.8763 -35.8683  -5.3428  -5.2953  -4.8528  -4.8528  -4.8018  -4.8018
    -3.0002  -2.5157  -1.8133  -0.9205   0.5305   0.5305  11.8254  11.8951
    14.7703  14.7703  15.6840  16.6626  17.3233  18.1542  18.1542  18.2846
    18.9490  19.5886  19.5886  19.6222  20.3688  20.3688  24.9949  24.9949
    30.6868  31.0921  31.0921  31.5864  32.0975  32.5227  33.0728  33.0728
    33.4123  33.6540  33.8757  34.1905  35.6529  35.6529  37.1390  38.1757
    38.1901  38.9936  38.9936  40.5232  40.6167  41.0605  41.2541  41.2541
    42.0592  42.5280  44.3395  44.6036  44.6036  45.6048  45.6049  45.8406
    46.1959  46.3076  47.1836  48.0458  48.0459  50.6818

          k = 0.4000 0.0000 0.1429 (  2659 PWs)   bands (ev):

   -35.8756 -35.8705  -5.3807  -5.3240  -4.8743  -4.8457  -4.8000  -4.7998
    -2.8932  -2.4326  -1.7917  -0.9140   0.2849   0.5110  11.8566  12.3941
    14.8009  14.9330  15.7536  16.4998  17.2006  17.7138  18.3149  18.3384
    19.1208  19.4755  19.5366  19.9332  20.2380  20.4100  23.9524  24.9694
    30.6855  31.0158  31.0671  31.6821  32.2088  32.5183  32.7254  32.8821
    32.9107  33.4490  33.7632  34.6217  36.1065  36.3244  37.2597  38.4613
    38.4621  39.0997  39.1915  40.4451  40.6716  41.0696  41.5536  41.6525
    42.0794  42.4942  43.8775  44.0958  44.3700  44.7116  45.4189  45.7506
    46.5126  47.5197  47.5281  48.2344  49.2804  49.5198

          k = 0.4000 0.0000 0.2857 (  2657 PWs)   bands (ev):

   -35.8752 -35.8702  -5.4706  -5.3886  -4.8705  -4.8350  -4.8081  -4.7909
    -2.6153  -2.2086  -1.7940  -0.8970  -0.2829   0.4677  11.8903  13.8018
    14.8738  15.2585  15.9307  16.1217  17.1792  17.3943  17.8402  18.4100
    19.2088  19.3409  19.8302  19.9858  20.3198  20.5331  21.6974  24.9064
    30.5403  30.9754  31.0531  31.4037  31.7539  31.9805  32.4964  32.5849
    32.7835  33.3763  34.1578  35.8031  36.9174  37.0363  37.7598  37.9892
    38.7067  39.1876  39.6127  40.3769  40.6406  41.2380  41.7205  42.2280
    42.3991  42.5110  42.5822  44.1642  44.4452  45.4470  45.7665  46.2419
    46.7399  47.8606  48.6435  48.6628  48.9767  49.4143

          k = 0.4000 0.0000 0.4286 (  2657 PWs)   bands (ev):

   -35.8734 -35.8713  -5.5391  -5.4563  -4.8483  -4.8196  -4.8148  -4.7820
    -2.2957  -1.9894  -1.7865  -1.1223  -0.6435   0.4331  11.9459  14.9395
    15.2125  15.6017  16.0121  16.2700  17.2987  17.3492  17.4591  18.2485
    18.5335  19.2787  19.5539  19.9417  20.3421  20.4908  20.6808  24.8526
    30.3096  30.4636  30.6101  31.2151  31.6043  31.9373  32.3915  32.7603
    32.9838  33.4296  35.2398  36.4197  36.8087  37.4626  37.6227  37.6311
    38.3546  39.5437  39.7492  40.1581  40.3791  40.8496  41.8088  42.0658
    42.5125  43.2286  44.2058  44.6141  44.8672  45.2587  46.0942  47.0922
    47.6159  47.9428  48.4334  48.7706  48.9969  49.1378

          k = 0.4000 0.1667 0.0000 (  2659 PWs)   bands (ev):

   -35.8747 -35.8713  -5.3945  -5.3342  -4.8780  -4.8447  -4.7994  -4.7957
    -2.8567  -2.4038  -1.7876  -0.9110   0.2036   0.5047  11.8593  12.5775
    14.8111  14.9836  15.7780  16.4426  17.1833  17.6463  18.2609  18.3457
    19.2306  19.4420  19.5046  20.0098  20.1982  20.4249  23.6232  24.9607
    30.6688  31.0194  31.0582  31.6932  32.2274  32.5366  32.5949  32.7080
    32.8528  33.4223  33.7670  34.7818  36.2375  36.5544  37.2662  38.4666
    38.5451  39.1359  39.2714  40.3915  40.6831  41.0559  41.7059  41.7849
    41.9603  42.5571  43.5873  44.0754  44.4409  44.6254  45.4450  45.7521
    46.5307  47.6062  47.8654  48.2857  49.3812  49.4117

          k = 0.4000 0.1667 0.1429 (  2662 PWs)   bands (ev):

   -35.8749 -35.8719  -5.4013  -5.3356  -4.9473  -4.8581  -4.8039  -4.7841
    -2.7524  -2.3230  -1.7517  -0.9104   0.1868   0.2619  12.3802  12.5872
    14.9179  15.1026  15.8341  16.3910  16.7323  17.9064  18.0152  18.6417
    18.8598  19.4040  19.8766  19.9642  20.2137  20.3246  23.6024  23.9234
    30.7159  30.8788  31.2909  31.7455  32.1413  32.2330  32.3784  32.4087
    32.9352  33.3316  33.9167  34.9795  36.6155  36.8354  37.5179  38.8323
    38.9975  39.1773  39.7185  40.2200  40.3298  41.1777  41.8471  42.0549
    42.1835  42.7288  43.4237  43.9152  44.2668  44.5946  44.8426  46.0944
    46.2562  47.3606  47.8374  48.3781  48.6403  49.3855

          k = 0.4000 0.1667 0.2857 (  2650 PWs)   bands (ev):

   -35.8713 -35.8701  -5.4335  -5.3565  -4.9887  -4.8723  -4.8084  -4.7893
    -2.4830  -2.1093  -1.7189  -0.8957  -0.3098   0.1528  12.6027  13.8064
    15.0345  15.4465  15.9131  16.0774  16.5599  17.7513  17.9490  18.5342
    19.0228  19.1715  19.8080  20.1081  20.2224  20.3953  21.6772  23.5519
    30.6247  30.9329  31.2733  31.4665  31.8207  31.9037  32.2398  32.5231
    32.5933  33.3234  34.1922  35.8246  37.2349  37.4023  37.9043  38.6554
    39.1691  39.4400  39.9667  40.3627  40.7539  41.4908  41.8168  42.3025
    42.5492  42.9134  43.1145  43.6735  44.1398  44.7588  45.6157  46.0396
    46.5203  47.1834  47.7130  48.1862  48.3666  48.4917

          k = 0.4000 0.1667 0.4286 (  2652 PWs)   bands (ev):

   -35.8709 -35.8707  -5.4749  -5.4070  -4.9470  -4.8840  -4.8418  -4.7992
    -2.1835  -1.8928  -1.6758  -1.0879  -0.7135   0.1291  12.6590  15.1145
    15.3161  15.6136  15.8188  16.2369  16.9828  17.5109  17.8568  18.3266
    18.5486  19.0910  19.4814  19.8510  20.2445  20.2712  20.5265  23.5067
    30.4756  30.6118  31.1575  31.3313  31.6739  31.8422  32.0140  32.5993
    32.6991  33.4925  35.1074  36.4487  36.9182  37.1337  37.9963  38.6167
    39.3655  39.4243  39.6335  41.0404  41.1920  41.6132  41.9556  42.0803
    42.5807  42.6764  43.4697  43.6294  44.5478  45.6064  45.7851  46.6361
    46.8730  47.3611  47.6878  47.8412  48.4896  48.5707

          k = 0.4000 0.3333 0.0000 (  2652 PWs)   bands (ev):

   -35.8731 -35.8700  -5.4960  -5.4135  -4.8619  -4.8303  -4.8052  -4.7863
    -2.5019  -2.1150  -1.8116  -0.9162  -0.4672   0.4536  11.9102  14.3777
    14.9000  15.3666  15.9865  16.0261  17.2162  17.3374  17.6915  18.3893
    19.0655  19.3052  19.9006  20.0464  20.3971  20.5889  20.9095  24.8851
    30.4771  30.8688  30.8936  31.3533  31.4606  31.9774  32.5007  32.5766
    32.8949  33.3888  34.4654  36.2030  36.9801  37.1697  37.7105  37.8032
    38.6366  39.2698  39.8190  40.3106  40.5996  40.9754  41.8242  42.1424
    42.3000  42.8297  43.0321  44.2682  44.4730  45.6933  45.7828  46.8320
    47.0424  48.0053  48.1712  48.7079  48.9400  49.3921

          k = 0.4000 0.3333 0.1429 (  2654 PWs)   bands (ev):

   -35.8726 -35.8705  -5.4606  -5.3841  -4.9590  -4.8615  -4.8216  -4.7912
    -2.4082  -2.0436  -1.7439  -0.9067  -0.4992   0.2203  12.4388  14.3819
    15.0391  15.4970  15.9117  15.9917  16.7280  17.6434  17.8590  18.4781
    19.0502  19.1062  19.7812  20.1454  20.2649  20.4754  20.9101  23.8607
    30.5735  30.7378  31.2261  31.4643  31.7434  31.9142  32.0191  32.5612
    32.6550  33.4263  34.4421  36.1876  37.0755  37.4363  37.8647  38.5553
    39.0292  39.3595  39.7028  40.5144  40.9147  41.5817  42.0017  42.3059
    42.4562  42.6360  43.1856  43.6986  44.0887  45.2141  45.8591  46.7024
    46.8579  47.2505  47.6286  48.0043  48.3872  48.5678

          k = 0.4000 0.3333 0.2857 (  2651 PWs)   bands (ev):

   -35.8706 -35.8698  -5.3904  -5.2995  -5.1044  -4.9375  -4.8731  -4.8222
    -2.1638  -1.8604  -1.6299  -0.8844  -0.5482  -0.3414  13.8619  14.4404
    15.1381  15.5499  15.7731  16.1798  16.6057  17.6956  18.2323  18.4911
    18.9174  18.9963  19.4722  19.9609  20.1576  20.2241  20.8347  21.6045
    30.7603  30.8856  31.0521  31.6582  31.8645  31.9903  32.3105  32.5034
    32.6437  32.9649  34.4695  36.3592  37.2073  37.4830  37.9849  38.4980
    39.8172  40.2914  40.4180  40.9325  41.1577  41.6092  42.0505  42.4092
    42.6560  43.2710  43.4616  43.8786  44.3342  44.5241  45.0190  45.7535
    46.4651  46.7162  47.1727  47.5531  48.0974  48.4681

          k = 0.4000 0.3333 0.4286 (  2646 PWs)   bands (ev):

   -35.8689 -35.8687  -5.3378  -5.2778  -5.1107  -4.9901  -4.9262  -4.8753
    -1.8785  -1.6801  -1.5106  -1.0090  -0.8287  -0.5560  14.5225  15.0973
    15.2214  15.5460  15.9419  16.6149  17.0488  17.8134  18.2976  18.3957
    18.4956  18.8541  19.2150  19.5949  19.8124  19.9045  19.9847  20.7433
    30.9353  31.0095  31.0194  31.7639  32.0328  32.1900  32.2212  32.5095
    32.5390  32.8133  35.2343  36.5421  36.9194  37.1184  37.8348  38.5577
    39.8759  40.4364  40.6026  40.8774  41.4359  41.6211  41.9290  42.2187
    42.8811  43.3330  43.8593  44.3661  44.4790  44.6740  45.3829  46.2906
    46.4432  46.6772  47.3727  47.9361  48.2914  48.4934

          k = 0.4000-0.5000 0.0000 (  2650 PWs)   bands (ev):

   -35.8710 -35.8709  -5.5453  -5.4600  -4.8444  -4.8156  -4.8122  -4.7792
    -2.2207  -2.0044  -1.6998  -1.2563  -0.6585   0.4281  11.9562  14.9502
    15.3180  15.6327  16.0338  16.7440  17.3220  17.3734  17.6064  17.6827
    18.3344  19.2731  19.3805  19.8723  20.4073  20.5181  20.7057  24.8452
    30.2149  30.4094  30.5109  31.1860  31.7875  31.8314  32.3668  32.8984
    32.9051  33.4444  35.6832  36.2472  36.5614  37.3634  37.8432  37.8677
    38.1616  39.6027  39.6779  40.0742  40.1192  40.9630  41.8330  42.1290
    42.6827  43.3528  44.3176  44.6741  44.9437  45.6882  46.0901  46.7918
    47.5907  48.0377  48.6996  48.7171  48.8094  48.8073

          k = 0.4000-0.5000 0.1429 (  2650 PWs)   bands (ev):

   -35.8706 -35.8703  -5.4989  -5.4265  -4.9010  -4.8820  -4.8308  -4.7960
    -2.1464  -1.9227  -1.6054  -1.2431  -0.7113   0.2013  12.4857  15.1014
    15.4497  15.5477  15.8777  16.6483  17.3521  17.4677  17.6453  17.7918
    18.4099  19.1395  19.3565  19.8078  20.2889  20.3426  20.5880  23.8258
    30.4435  30.4813  30.8916  31.2938  31.7991  31.8896  31.9760  32.6935
    32.7165  33.5126  35.5929  36.0608  36.7555  37.5205  37.9438  38.3104
    39.1034  39.2225  39.7050  41.0225  41.1602  41.2823  41.9509  41.9891
    42.7456  42.7789  43.6127  43.6911  44.9576  45.6922  46.1061  46.9090
    47.0763  47.1598  47.3806  47.9385  48.4668  49.2348

          k = 0.4000-0.5000 0.2857 (  2640 PWs)   bands (ev):

   -35.8678 -35.8677  -5.3705  -5.3304  -5.0186  -5.0107  -4.8827  -4.8590
    -1.9209  -1.7512  -1.3990  -1.2292  -0.8106  -0.3452  13.9233  15.1328
    15.2801  15.6219  16.1079  16.6408  17.5294  17.5725  17.7889  18.0563
    18.5511  18.8101  19.3024  19.5468  19.9476  19.9489  20.1583  21.5545
    30.8295  31.0500  31.1341  31.2403  31.8642  32.1683  32.2543  32.4984
    32.5004  33.1444  35.6544  35.8784  37.0294  37.1818  37.6067  39.0523
    39.6980  40.5756  40.8876  40.9230  41.3044  41.5947  41.8863  41.8946
    42.4060  43.0985  43.8422  43.8906  44.9912  45.1571  45.4893  45.6305
    46.7059  46.8233  47.0969  47.6092  48.2684  49.0063

          k = 0.4000-0.5000 0.4286 (  2640 PWs)   bands (ev):

   -35.8671 -35.8671  -5.2467  -5.2367  -5.0794  -5.0779  -4.9719  -4.9637
    -1.6095  -1.5431  -1.2768  -1.2468  -0.9595  -0.8448  14.9957  14.9988
    15.5552  15.9671  16.7750  16.8576  17.5639  17.6536  18.1560  18.2379
    18.5746  18.6530  19.1040  19.1070  19.4189  19.4615  19.5140  19.6441
    31.1598  31.2114  31.5172  31.5370  32.0827  32.3587  32.4396  32.4482
    32.5125  32.5285  36.2348  36.3175  36.9872  37.0230  37.6377  38.0327
    39.8194  39.8387  40.5103  40.6792  41.3267  41.3425  41.8659  41.9249
    43.6072  43.6838  44.2940  44.3798  45.5981  45.6204  46.0648  46.5477
    47.0383  47.0635  47.2922  47.5163  47.9837  48.0598

     the Fermi energy is    43.2087 ev

!    total energy              =   -1009.88328227 Ry
     Harris-Foulkes estimate   =   -1009.88330160 Ry
     estimated scf accuracy    <       0.00002133 Ry

     The total energy is the sum of the following terms:

     one-electron contribution =     203.51115394 Ry
     hartree contribution      =      64.52371465 Ry
     xc contribution           =    -123.26686384 Ry
     ewald contribution        =   -1154.38170598 Ry
     smearing contrib. (-TS)   =      -0.26958104 Ry

     convergence has been achieved in  11 iterations

     Forces acting on atoms (Ry/au):

     atom    1 type  1   force =     0.00000000    0.00000000    0.00000000
     atom    2 type  1   force =     0.00000000    0.00000000    0.00000000
     atom    3 type  1   force =     0.00000000    0.00000000    0.00000000
     atom    4 type  1   force =     0.00000000    0.00000000    0.00000000
     atom    5 type  1   force =     0.00000000    0.00000000    0.00000000
     atom    6 type  1   force =     0.00000000    0.00000000    0.00000000
     atom    7 type  2   force =     0.00000000    0.00000000    0.00000000
     atom    8 type  2   force =     0.00000000    0.00000000    0.00000000

     Total force =     0.000000     Total SCF correction =     0.000000


     entering subroutine stress ...

          total   stress  (Ry/bohr**3)                   (kbar)     P= 4837.86
   0.03288711   0.00000000   0.00000000       4837.86      0.00      0.00
   0.00000000   0.03288711   0.00000000          0.00   4837.86      0.00
   0.00000000   0.00000000   0.03288711          0.00      0.00   4837.86


     BFGS Geometry Optimization

     number of scf cycles    =   1
     number of bfgs steps    =   0

     enthalpy new            =   -1009.8832822709 Ry

     new trust radius        =       0.5000000000 bohr
     new conv_thr            =       0.0001000000 Ry

     new unit-cell volume =    828.02266 a.u.^3 (   122.70030 Ang^3 )

CELL_PARAMETERS (alat=  8.53457320)
   1.100269143   0.000000000   0.000000000
   0.000000000   1.100269143   0.000000000
   0.000000000   0.000000000   1.100269143

ATOMIC_POSITIONS (crystal)
Cr       0.000000000   0.500000000   0.250000000
Cr       0.000000000   0.500000000   0.750000000
Cr       0.500000000   0.750000000   0.000000000
Cr       0.500000000   0.250000000   0.000000000
Cr       0.750000000   0.000000000   0.500000000
Cr       0.250000000   0.000000000   0.500000000
Si       0.500000000   0.500000000   0.500000000
Si       0.000000000   0.000000000   0.000000000



     Writing output data file Prototype-La-cP8-Cr3Si.save
     NEW-OLD atomic charge density approx. for the potential
     NEW k-points:
        k(    1) = (   0.0000000   0.0000000   0.0000000), wk =   0.0095238
        k(    2) = (   0.0000000   0.0000000   0.1298384), wk =   0.0190476
        k(    3) = (   0.0000000   0.0000000   0.2596767), wk =   0.0190476
        k(    4) = (   0.0000000   0.0000000   0.3895151), wk =   0.0190476
        k(    5) = (   0.0000000   0.1514781   0.0000000), wk =   0.0190476
        k(    6) = (   0.0000000   0.1514781   0.1298384), wk =   0.0380952
        k(    7) = (   0.0000000   0.1514781   0.2596767), wk =   0.0380952
        k(    8) = (   0.0000000   0.1514781   0.3895151), wk =   0.0380952
        k(    9) = (   0.0000000   0.3029562   0.0000000), wk =   0.0190476
        k(   10) = (   0.0000000   0.3029562   0.1298384), wk =   0.0380952
        k(   11) = (   0.0000000   0.3029562   0.2596767), wk =   0.0380952
        k(   12) = (   0.0000000   0.3029562   0.3895151), wk =   0.0380952
        k(   13) = (   0.0000000  -0.4544343   0.0000000), wk =   0.0095238
        k(   14) = (   0.0000000  -0.4544343   0.1298384), wk =   0.0190476
        k(   15) = (   0.0000000  -0.4544343   0.2596767), wk =   0.0190476
        k(   16) = (   0.0000000  -0.4544343   0.3895151), wk =   0.0190476
        k(   17) = (   0.1817737   0.0000000   0.0000000), wk =   0.0190476
        k(   18) = (   0.1817737   0.0000000   0.1298384), wk =   0.0380952
        k(   19) = (   0.1817737   0.0000000   0.2596767), wk =   0.0380952
        k(   20) = (   0.1817737   0.0000000   0.3895151), wk =   0.0380952
        k(   21) = (   0.1817737   0.1514781   0.0000000), wk =   0.0380952
        k(   22) = (   0.1817737   0.1514781   0.1298384), wk =   0.0761905
        k(   23) = (   0.1817737   0.1514781   0.2596767), wk =   0.0761905
        k(   24) = (   0.1817737   0.1514781   0.3895151), wk =   0.0761905
        k(   25) = (   0.1817737   0.3029562   0.0000000), wk =   0.0380952
        k(   26) = (   0.1817737   0.3029562   0.1298384), wk =   0.0761905
        k(   27) = (   0.1817737   0.3029562   0.2596767), wk =   0.0761905
        k(   28) = (   0.1817737   0.3029562   0.3895151), wk =   0.0761905
        k(   29) = (   0.1817737  -0.4544343   0.0000000), wk =   0.0190476
        k(   30) = (   0.1817737  -0.4544343   0.1298384), wk =   0.0380952
        k(   31) = (   0.1817737  -0.4544343   0.2596767), wk =   0.0380952
        k(   32) = (   0.1817737  -0.4544343   0.3895151), wk =   0.0380952
        k(   33) = (   0.3635474   0.0000000   0.0000000), wk =   0.0190476
        k(   34) = (   0.3635474   0.0000000   0.1298384), wk =   0.0380952
        k(   35) = (   0.3635474   0.0000000   0.2596767), wk =   0.0380952
        k(   36) = (   0.3635474   0.0000000   0.3895151), wk =   0.0380952
        k(   37) = (   0.3635474   0.1514781   0.0000000), wk =   0.0380952
        k(   38) = (   0.3635474   0.1514781   0.1298384), wk =   0.0761905
        k(   39) = (   0.3635474   0.1514781   0.2596767), wk =   0.0761905
        k(   40) = (   0.3635474   0.1514781   0.3895151), wk =   0.0761905
        k(   41) = (   0.3635474   0.3029562   0.0000000), wk =   0.0380952
        k(   42) = (   0.3635474   0.3029562   0.1298384), wk =   0.0761905
        k(   43) = (   0.3635474   0.3029562   0.2596767), wk =   0.0761905
        k(   44) = (   0.3635474   0.3029562   0.3895151), wk =   0.0761905
        k(   45) = (   0.3635474  -0.4544343   0.0000000), wk =   0.0190476
        k(   46) = (   0.3635474  -0.4544343   0.1298384), wk =   0.0380952
        k(   47) = (   0.3635474  -0.4544343   0.2596767), wk =   0.0380952
        k(   48) = (   0.3635474  -0.4544343   0.3895151), wk =   0.0380952
     Check: negative starting charge=   -0.008495

     negative rho (up, down):  0.881E-02 0.000E+00
     extrapolated charge  135.42630, renormalised to  116.00000

     total cpu time spent up to now is      202.0 secs

     Self-consistent Calculation

     iteration #  1     ecut=    40.00 Ry     beta=0.70
     CG style diagonalization
     c_bands:  4 eigenvalues not converged
     c_bands:  1 eigenvalues not converged
     c_bands:  3 eigenvalues not converged
     c_bands:  4 eigenvalues not converged
     c_bands:  1 eigenvalues not converged
     c_bands:  1 eigenvalues not converged
     c_bands:  1 eigenvalues not converged
     c_bands:  4 eigenvalues not converged
     c_bands:  2 eigenvalues not converged
     c_bands:  2 eigenvalues not converged
     c_bands:  2 eigenvalues not converged
     c_bands:  4 eigenvalues not converged
     c_bands:  3 eigenvalues not converged
     c_bands:  1 eigenvalues not converged
     c_bands:  5 eigenvalues not converged
     c_bands:  2 eigenvalues not converged
     c_bands:  1 eigenvalues not converged
     c_bands:  4 eigenvalues not converged
     c_bands:  3 eigenvalues not converged
     c_bands:  1 eigenvalues not converged
     c_bands:  4 eigenvalues not converged
     c_bands:  3 eigenvalues not converged
     c_bands:  1 eigenvalues not converged
     c_bands:  1 eigenvalues not converged
     c_bands:  1 eigenvalues not converged
     c_bands:  1 eigenvalues not converged
     c_bands:  4 eigenvalues not converged
     c_bands:  5 eigenvalues not converged
     c_bands:  1 eigenvalues not converged
     c_bands:  3 eigenvalues not converged
     c_bands:  3 eigenvalues not converged
     c_bands:  4 eigenvalues not converged
     c_bands:  2 eigenvalues not converged
     c_bands:  2 eigenvalues not converged
     c_bands:  2 eigenvalues not converged
     c_bands:  1 eigenvalues not converged
     c_bands:  3 eigenvalues not converged
     c_bands:  1 eigenvalues not converged
     c_bands:  3 eigenvalues not converged
     c_bands:  3 eigenvalues not converged
     c_bands:  2 eigenvalues not converged
     c_bands:  4 eigenvalues not converged
     ethr =  1.00E-06,  avg # of iterations = 22.9

     negative rho (up, down):  0.225E-02 0.000E+00

     total cpu time spent up to now is      263.7 secs

     total energy              =    -985.02570027 Ry
     Harris-Foulkes estimate   =   -1036.35625880 Ry
     estimated scf accuracy    <      62.28771910 Ry

     iteration #  2     ecut=    40.00 Ry     beta=0.70
     CG style diagonalization
     c_bands:  1 eigenvalues not converged
     c_bands:  1 eigenvalues not converged
     c_bands:  1 eigenvalues not converged
     c_bands:  1 eigenvalues not converged
     c_bands:  1 eigenvalues not converged
     ethr =  1.00E-02,  avg # of iterations =  6.6

     negative rho (up, down):  0.153E-02 0.000E+00

     total cpu time spent up to now is      282.7 secs

     total energy              =    -989.68643512 Ry
     Harris-Foulkes estimate   =   -1037.50861854 Ry
     estimated scf accuracy    <      96.69618074 Ry

     iteration #  3     ecut=    40.00 Ry     beta=0.70
     CG style diagonalization
     c_bands:  1 eigenvalues not converged
     ethr =  1.00E-02,  avg # of iterations =  6.4

     negative rho (up, down):  0.467E-03 0.000E+00

     total cpu time spent up to now is      300.7 secs

     total energy              =   -1013.03501399 Ry
     Harris-Foulkes estimate   =   -1014.43645222 Ry
     estimated scf accuracy    <       3.25213382 Ry

     iteration #  4     ecut=    40.00 Ry     beta=0.70
     CG style diagonalization
     c_bands:  1 eigenvalues not converged
     c_bands:  1 eigenvalues not converged
     ethr =  2.80E-03,  avg # of iterations =  3.8

     negative rho (up, down):  0.256E-03 0.000E+00

     total cpu time spent up to now is      310.9 secs

     total energy              =   -1013.52048315 Ry
     Harris-Foulkes estimate   =   -1013.63184985 Ry
     estimated scf accuracy    <       0.36109863 Ry

     iteration #  5     ecut=    40.00 Ry     beta=0.70
     CG style diagonalization
     c_bands:  1 eigenvalues not converged
     c_bands:  1 eigenvalues not converged
     c_bands:  1 eigenvalues not converged
     c_bands:  1 eigenvalues not converged
     c_bands:  2 eigenvalues not converged
     c_bands:  1 eigenvalues not converged
     c_bands:  1 eigenvalues not converged
     c_bands:  2 eigenvalues not converged
     c_bands:  1 eigenvalues not converged
     c_bands:  3 eigenvalues not converged
     c_bands:  1 eigenvalues not converged
     c_bands:  1 eigenvalues not converged
     c_bands:  3 eigenvalues not converged
     c_bands:  1 eigenvalues not converged
     c_bands:  1 eigenvalues not converged
     c_bands:  2 eigenvalues not converged
     c_bands:  3 eigenvalues not converged
     c_bands:  4 eigenvalues not converged
     c_bands:  2 eigenvalues not converged
     c_bands:  2 eigenvalues not converged
     c_bands:  4 eigenvalues not converged
     ethr =  3.11E-04,  avg # of iterations =  4.4

     total cpu time spent up to now is      323.2 secs

     total energy              =   -1013.55148021 Ry
     Harris-Foulkes estimate   =   -1013.59628857 Ry
     estimated scf accuracy    <       0.07186096 Ry

     iteration #  6     ecut=    40.00 Ry     beta=0.70
     CG style diagonalization
     c_bands:  1 eigenvalues not converged
     c_bands:  1 eigenvalues not converged
     c_bands:  1 eigenvalues not converged
     c_bands:  1 eigenvalues not converged
     c_bands:  1 eigenvalues not converged
     c_bands:  1 eigenvalues not converged
     c_bands:  1 eigenvalues not converged
     c_bands:  1 eigenvalues not converged
     c_bands:  1 eigenvalues not converged
     c_bands:  1 eigenvalues not converged
     c_bands:  1 eigenvalues not converged
     c_bands:  1 eigenvalues not converged
     ethr =  6.19E-05,  avg # of iterations =  4.2

     total cpu time spent up to now is      335.4 secs

     total energy              =   -1013.58244356 Ry
     Harris-Foulkes estimate   =   -1013.58806039 Ry
     estimated scf accuracy    <       0.01332434 Ry

     iteration #  7     ecut=    40.00 Ry     beta=0.70
     CG style diagonalization
     c_bands:  1 eigenvalues not converged
     c_bands:  1 eigenvalues not converged
     c_bands:  1 eigenvalues not converged
     c_bands:  1 eigenvalues not converged
     c_bands:  1 eigenvalues not converged
     c_bands:  1 eigenvalues not converged
     c_bands:  1 eigenvalues not converged
     c_bands:  1 eigenvalues not converged
     c_bands:  1 eigenvalues not converged
     c_bands:  1 eigenvalues not converged
     c_bands:  1 eigenvalues not converged
     c_bands:  1 eigenvalues not converged
     c_bands:  1 eigenvalues not converged
     ethr =  1.15E-05,  avg # of iterations =  3.8

     total cpu time spent up to now is      345.5 secs

     total energy              =   -1013.58397293 Ry
     Harris-Foulkes estimate   =   -1013.58462847 Ry
     estimated scf accuracy    <       0.00101361 Ry

     iteration #  8     ecut=    40.00 Ry     beta=0.70
     CG style diagonalization
     c_bands:  1 eigenvalues not converged
     c_bands:  1 eigenvalues not converged
     c_bands:  1 eigenvalues not converged
     c_bands:  1 eigenvalues not converged
     c_bands:  1 eigenvalues not converged
     c_bands:  1 eigenvalues not converged
     c_bands:  1 eigenvalues not converged
     c_bands:  1 eigenvalues not converged
     c_bands:  1 eigenvalues not converged
     c_bands:  1 eigenvalues not converged
     c_bands:  1 eigenvalues not converged
     c_bands:  2 eigenvalues not converged
     c_bands:  1 eigenvalues not converged
     ethr =  8.74E-07,  avg # of iterations =  4.4

     total cpu time spent up to now is      358.3 secs

     total energy              =   -1013.58448111 Ry
     Harris-Foulkes estimate   =   -1013.58456761 Ry
     estimated scf accuracy    <       0.00022357 Ry

     iteration #  9     ecut=    40.00 Ry     beta=0.70
     CG style diagonalization
     c_bands:  1 eigenvalues not converged
     c_bands:  1 eigenvalues not converged
     c_bands:  1 eigenvalues not converged
     c_bands:  1 eigenvalues not converged
     ethr =  1.93E-07,  avg # of iterations =  3.4

     total cpu time spent up to now is      367.4 secs

     End of self-consistent calculation

          k = 0.0000 0.0000 0.0000 (  2601 PWs)   bands (ev):

   -45.0799 -45.0299 -13.4820 -13.4820 -13.4820 -13.3948 -13.3948 -13.3948
   -12.8082 -12.0656 -12.0656 -10.5463 -10.5463 -10.5463   4.1960   4.1960
     4.9877   6.6725   6.6725   6.6725   8.4988   8.4988   8.4988   9.1149
     9.1149   9.1149   9.4848   9.4848   9.4848  12.2912  12.2912  12.2912
    22.7101  22.7101  23.7732  23.7732  23.9131  23.9131  23.9131  23.9775
    23.9775  23.9775  24.2664  25.2455  25.2455  25.2455  25.3234  27.0029
    27.8725  27.8725  27.8725  28.1783  28.6012  28.6012  31.4823  31.4823
    31.4823  31.6184  31.6184  33.1020  33.1020  33.1020  34.1223  34.1223
    34.1223  37.1400  37.1834  37.1403  37.6873  39.6634

          k = 0.0000 0.0000 0.1298 (  2657 PWs)   bands (ev):

   -45.1134 -45.0845 -13.5169 -13.5121 -13.4840 -13.4840 -13.4754 -13.4754
   -12.7115 -12.0606 -12.0132 -10.6497 -10.5513 -10.5513   4.2040   4.3248
     5.0767   6.6531   6.6531   6.8048   8.4410   8.4410   8.5217   8.9558
     9.2334   9.2334   9.4082   9.4254   9.4254  11.7337  12.2779  12.2779
    22.6670  22.8893  23.4124  23.6197  23.6197  23.6755  23.8931  23.9290
    23.9356  23.9356  24.5277  24.7192  25.4678  25.4678  26.7823  27.3005
    27.3258  28.1308  28.1308  28.2681  28.5088  29.2208  31.0372  31.0372
    31.3719  31.4053  31.5164  33.0549  33.4160  33.4160  34.2827  34.2829
    34.7871  36.3557  36.3637  37.0325  37.0327  37.5138

          k = 0.0000 0.0000 0.2597 (  2677 PWs)   bands (ev):

   -45.1224 -45.1067 -13.6107 -13.6061 -13.4903 -13.4903 -13.4818 -13.4818
   -12.5003 -12.0705 -11.8608 -10.9232 -10.5622 -10.5622   4.2609   4.4256
     5.7427   6.6167   6.6167   7.1352   8.4159   8.4159   8.5179   8.6455
     9.2566   9.3296   9.3296   9.4581   9.4581  10.3400  12.2570  12.2570
    22.4419  23.0381  23.0381  23.0780  23.2734  23.4675  23.8465  23.8542
    23.9078  23.9078  24.6169  25.0985  25.9908  25.9908  26.7110  28.0944
    28.2369  28.2430  28.6286  28.6286  28.8137  30.5143  30.5143  30.8114
    31.0755  31.1350  31.3407  32.5847  33.1194  33.1194  34.4217  34.4218
    35.3008  35.4658  35.5117  37.1565  37.1570  37.6242

          k = 0.0000 0.0000 0.3895 (  2658 PWs)   bands (ev):

   -45.1009 -45.0991 -13.6390 -13.6230 -13.4872 -13.4872 -13.4642 -13.4642
   -12.2791 -12.1291 -11.6109 -11.2761 -10.5709 -10.5709   4.3275   4.3877
     6.5857   6.5857   6.9967   7.5980   7.9830   8.4258   8.4258   8.6993
     8.8348   9.0533   9.2558   9.2558   9.6334   9.6334  12.2494  12.2494
    22.4284  22.6339  22.6339  22.7615  23.4182  23.4826  23.8049  23.8146
    23.8954  23.8954  24.6455  24.9086  26.4936  26.4936  27.4494  27.9863
    28.4974  28.9275  28.9275  29.1814  29.6369  30.2445  30.2445  30.2923
    30.7864  31.2032  32.3358  32.5120  32.5120  33.3090  34.5067  34.5067
    34.7649  34.7906  34.9356  36.8324  36.8325  36.9793

          k = 0.0000 0.1515 0.0000 (  2653 PWs)   bands (ev):

   -45.1082 -45.0844 -13.5230 -13.5205 -13.4828 -13.4828 -13.4717 -13.4717
   -12.6801 -12.0598 -11.9945 -10.6854 -10.5529 -10.5529   4.2119   4.3582
     5.1353   6.6497   6.6497   6.8543   8.4342   8.4342   8.5372   8.8981
     9.2690   9.2690   9.3888   9.4138   9.4138  11.5500  12.2773  12.2773
    22.6406  22.9375  23.3491  23.5276  23.5276  23.6421  23.8878  23.9151
    23.9302  23.9302  24.6241  24.6897  25.5410  25.5410  27.0910  27.1828
    27.4035  28.2122  28.2122  28.2665  28.4795  29.4646  30.9370  30.9370
    31.2976  31.3740  31.4877  33.0164  33.4295  33.4295  34.3338  34.3339
    34.9647  36.1721  36.2028  36.9670  36.9674  37.8982

          k = 0.0000 0.1515 0.1298 (  2662 PWs)   bands (ev):

   -45.1204 -45.0871 -13.5731 -13.5275 -13.5085 -13.4851 -13.4751 -13.4748
   -12.6023 -12.0262 -11.9735 -10.6904 -10.6537 -10.5576   4.2830   4.5221
     5.1693   6.6513   6.7837   6.8374   8.2903   8.3350   8.6968   9.0253
     9.1438   9.2241   9.3436   9.3709   9.5166  11.5304  11.7263  12.2695
    22.7140  23.0042  23.2832  23.3993  23.4836  23.4860  23.6023  23.7153
    23.8448  23.9588  24.4244  24.8437  25.7636  26.2702  27.3928  27.5637
    27.6824  27.7483  28.3058  28.4739  29.1103  29.3972  30.5667  30.7507
    31.2005  31.2495  31.7256  32.8013  33.6780  33.6963  34.1011  34.6394
    34.8454  35.3825  36.0085  36.9090  37.3376  37.4455

          k = 0.0000 0.1515 0.2597 (  2666 PWs)   bands (ev):

   -45.1129 -45.1016 -13.6267 -13.5896 -13.5144 -13.4846 -13.4762 -13.4745
   -12.4134 -12.0143 -11.8463 -10.9257 -10.6960 -10.5686   4.3292   4.7495
     5.7061   6.6514   6.8055   7.1087   8.1691   8.2086   8.7473   8.7975
     9.1314   9.2621   9.3058   9.5057   9.5422  10.3657  11.5307  12.2539
    22.5389  22.9188  22.9854  23.1294  23.2912  23.3689  23.4752  23.5936
    23.7427  23.9875  24.4556  25.3407  26.2960  26.8124  27.0281  28.0707
    28.2019  28.4282  28.9637  29.0290  29.2890  30.0789  30.4212  30.8334
    31.0118  31.0816  31.7288  32.3653  33.0939  33.3531  33.7828  34.4721
    34.6158  35.3934  36.1451  36.8241  37.1789  37.2276

          k = 0.0000 0.1515 0.3895 (  2658 PWs)   bands (ev):

   -45.1050 -45.0965 -13.6561 -13.6285 -13.4971 -13.4807 -13.4701 -13.4700
   -12.2123 -12.0674 -11.6067 -11.2737 -10.7020 -10.5773   4.3529   4.7675
     6.6431   6.6497   7.0755   7.5073   7.9090   8.2278   8.5101   8.6255
     8.7361   9.1851   9.2026   9.4986   9.5197   9.6569  11.5220  12.2485
    22.3677  22.5798  22.6178  22.9139  23.3918  23.4472  23.4680  23.5895
    23.6739  24.0137  24.7078  25.1759  26.8215  27.1051  27.4479  27.9538
    28.8581  29.0989  29.2444  29.5212  29.5352  30.2038  30.4835  30.5256
    30.8834  30.9797  32.0080  32.2864  32.6855  33.6657  33.7221  34.0233
    34.2263  35.3612  36.1500  36.1973  36.6289  37.1368

          k = 0.0000 0.3030 0.0000 (  2677 PWs)   bands (ev):

   -45.1225 -45.1061 -13.6296 -13.6073 -13.4959 -13.4959 -13.4838 -13.4838
   -12.4237 -12.0813 -11.7884 -11.0368 -10.5659 -10.5659   4.2833   4.4210
     6.1057   6.6032   6.6032   7.2725   8.3387   8.4170   8.4170   8.7031
     9.1961   9.2988   9.2988   9.5279   9.5279   9.8127  12.2468  12.2468
    22.3938  22.8678  22.8678  23.0186  23.3138  23.4536  23.8272  23.8398
    23.9016  23.9016  24.6091  25.1224  26.1827  26.1827  26.8298  28.1662
    28.2639  28.4344  28.7652  28.7652  29.4612  30.3920  30.3920  30.5662
    30.8699  31.2870  31.9549  32.3834  32.8948  32.8948  34.4336  34.4336
    35.0527  35.2814  35.2937  37.0483  37.0485  38.0126

          k = 0.0000 0.3030 0.1298 (  2660 PWs)   bands (ev):

   -45.1055 -45.0994 -13.6374 -13.5974 -13.5102 -13.4825 -13.4688 -13.4633
   -12.3632 -12.0379 -11.7804 -11.0377 -10.6647 -10.5706   4.3349   4.6605
     6.0648   6.6397   6.7606   7.2506   8.1312   8.2438   8.6630   8.7446
     9.1136   9.2531   9.3798   9.4952   9.5642   9.8574  11.7114  12.2555
    22.4596  22.7851  22.8306  23.0723  23.3270  23.4096  23.5451  23.6569
    23.7336  23.9835  24.5191  25.3161  26.4149  26.7837  26.9708  28.1062
    28.4589  28.6558  28.9797  29.0251  29.6190  30.0237  30.3454  30.7535
    30.8768  31.5478  31.8550  32.1293  32.8513  33.1623  33.8192  34.3949
    34.4904  35.4549  36.0006  36.7262  37.3647  37.3976

          k = 0.0000 0.3030 0.2597 (  2658 PWs)   bands (ev):

   -45.1094 -45.0942 -13.6686 -13.6302 -13.4951 -13.4776 -13.4754 -13.4719
   -12.2167 -11.9337 -11.7545 -11.0475 -10.9155 -10.5814   4.3545   5.4533
     6.0546   6.7223   7.0623   7.1845   7.9831   8.0622   8.4705   8.8203
     9.1237   9.1694   9.3516   9.5978   9.6741   9.8589  10.4118  12.2428
    22.4449  22.6495  22.7213  22.8467  23.1036  23.2416  23.4674  23.4980
    23.6244  24.0624  24.7070  25.7802  27.0015  27.2250  27.5718  27.9242
    28.2009  29.2555  29.4032  29.7400  29.9891  30.2921  30.4684  30.7711
    30.9253  31.0140  31.8053  32.0724  33.1804  33.3522  33.3650  34.0681
    34.3082  35.3205  36.3136  36.4471  36.6251  37.2019

          k = 0.0000 0.3030 0.3895 (  2654 PWs)   bands (ev):

   -45.0998 -45.0961 -13.6810 -13.6474 -13.4921 -13.4852 -13.4815 -13.4680
   -12.0742 -11.8759 -11.6123 -11.2738 -11.0168 -10.5901   4.3678   5.8835
     6.7189   6.7959   7.2663   7.3165   7.9425   8.0158   8.2124   8.4948
     8.7668   9.1029   9.2978   9.5275   9.6524   9.7503   9.9097  12.2263
    22.2647  22.3484  22.4689  22.8902  22.9671  23.1085  23.5598  23.5773
    23.6156  24.1207  25.2242  25.8624  26.9706  27.6524  27.6696  27.9638
    29.0166  29.3315  29.5797  29.8464  29.9653  30.2517  30.2528  30.7444
    31.0236  31.3371  31.6392  33.0438  33.2808  33.5050  33.7411  33.8117
    34.2269  35.2087  35.9782  36.1545  36.3934  36.9482

          k = 0.0000-0.4544 0.0000 (  2666 PWs)   bands (ev):

   -45.1056 -45.1056 -13.6427 -13.6427 -13.4878 -13.4878 -13.4736 -13.4736
   -12.1935 -12.1935 -11.4513 -11.4513 -10.5722 -10.5722   4.3550   4.3550
     6.5814   6.5814   7.6276   7.6276   7.9710   7.9710   8.4275   8.4275
     8.9419   8.9419   9.2409   9.2409   9.6558   9.6558  12.2472  12.2472
    22.5638  22.5638  22.5778  22.5778  23.4718  23.4718  23.8042  23.8042
    23.8940  23.8940  24.7409  24.7409  26.5792  26.5792  27.7998  27.7998
    28.9549  28.9549  28.9970  28.9970  29.7552  29.7552  30.2114  30.2114
    31.1105  31.1105  32.4073  32.4073  32.9083  32.9083  34.5379  34.5380
    34.7938  34.7942  36.7714  36.7716  38.6250  38.6252

          k = 0.0000-0.4544 0.1298 (  2666 PWs)   bands (ev):

   -45.1060 -45.1059 -13.6528 -13.6435 -13.5010 -13.4844 -13.4842 -13.4725
   -12.1586 -12.1333 -11.4676 -11.4302 -10.6694 -10.5770   4.3578   4.6593
     6.6320   6.6622   7.5832   7.6417   7.8601   7.9722   8.2757   8.5642
     8.6633   9.1448   9.2021   9.4528   9.5610   9.6691  11.6997  12.2436
    22.3565  22.5389  22.6031  22.8244  23.4444  23.4669  23.5259  23.6502
    23.6864  23.9987  24.7994  24.9430  26.8257  26.9873  27.7876  27.8525
    29.0342  29.0870  29.1854  29.2227  29.8887  29.9582  30.3047  30.4421
    30.8501  31.2484  31.9698  32.2385  32.5731  33.7358  33.7715  34.0783
    34.7973  35.4605  35.6932  35.9206  36.2763  37.0318

          k = 0.0000-0.4544 0.2597 (  2658 PWs)   bands (ev):

   -45.1008 -45.1006 -13.6742 -13.6459 -13.4929 -13.4914 -13.4858 -13.4711
   -12.0771 -11.9581 -11.5079 -11.3894 -10.9198 -10.5878   4.3631   5.5150
     6.7581   6.8282   7.4116   7.6696   7.8375   8.0049   8.0716   8.2741
     8.7042   9.1188   9.3462   9.4631   9.6235   9.7298  10.3949  12.2286
    22.2469  22.3832  22.5511  22.9333  23.0574  23.0893  23.5626  23.5754
    23.5828  24.1018  25.2152  25.4857  27.1844  27.4975  27.6611  28.0093
    29.2427  29.2851  29.3490  29.7187  30.1550  30.1674  30.3045  30.7416
    30.8260  31.3016  31.4644  32.9696  32.9907  33.3418  33.4926  34.2399
    34.8687  35.0862  35.4876  36.1554  36.4702  37.2289

          k = 0.0000-0.4544 0.3895 (  2662 PWs)   bands (ev):

   -45.1039 -45.1039 -13.7075 -13.6690 -13.4987 -13.4838 -13.4831 -13.4751
   -12.0109 -11.6920 -11.5466 -11.4290 -11.1754 -10.5964   4.3799   6.6843
     6.8945   6.9414   7.3312   7.6897   7.8469   7.9638   7.9907   8.0715
     8.4230   9.0601   9.1149   9.1847   9.6723   9.6905   9.8031  12.2128
    22.1451  22.1694  22.2160  22.8534  23.0284  23.0420  23.5203  23.6842
    23.6852  24.1718  25.9598  26.0565  26.5303  27.5705  27.6776  28.4233
    29.2361  29.2605  29.4524  29.6231  30.1171  30.1511  30.3317  30.5572
    31.2864  31.3041  33.0756  33.1925  33.2579  33.4079  34.2664  34.3709
    34.3866  35.1414  35.6743  35.8345  36.2070  36.6719

          k = 0.1818 0.0000 0.0000 (  2661 PWs)   bands (ev):

   -45.1216 -45.0840 -13.5586 -13.5333 -13.4842 -13.4842 -13.4791 -13.4791
   -12.6343 -12.0595 -11.9639 -10.7428 -10.5553 -10.5553   4.2244   4.3946
     5.2521   6.6410   6.6410   6.9249   8.4256   8.4256   8.5627   8.8007
     9.3168   9.3168   9.3576   9.3975   9.3975  11.2478  12.2692  12.2692
    22.5901  23.0010  23.2894  23.3907  23.3907  23.5895  23.8792  23.8948
    23.9228  23.9228  24.6598  24.7698  25.6556  25.6556  26.9860  27.5379
    27.5694  28.2581  28.3292  28.3292  28.4363  29.8633  30.8035  30.8035
    31.1811  31.3163  31.4458  32.9324  33.4006  33.4006  34.3879  34.3880
    35.1954  35.9062  35.9956  36.9622  37.7179  37.8489

          k = 0.1818 0.0000 0.1298 (  2667 PWs)   bands (ev):

   -45.1161 -45.0990 -13.5816 -13.5564 -13.5161 -13.4850 -13.4799 -13.4727
   -12.5591 -12.0235 -11.9471 -10.7469 -10.6562 -10.5601   4.2947   4.5811
     5.2620   6.6486   6.7765   6.9059   8.2677   8.2996   8.7257   8.9562
     9.1850   9.1958   9.3530   9.3804   9.5197  11.2365  11.7189  12.2659
    22.6731  23.0578  23.2237  23.3386  23.3514  23.4217  23.5859  23.6915
    23.8212  23.9634  24.4165  24.9735  25.8789  26.3947  27.2535  27.8008
    27.8407  27.9514  28.2777  28.5915  29.0852  29.7850  30.4538  30.6581
    31.1153  31.2023  31.7622  32.6858  33.5981  33.6585  34.0508  34.6127
    35.0026  35.1800  35.9979  36.9704  37.2180  37.3069

          k = 0.1818 0.0000 0.2597 (  2659 PWs)   bands (ev):

   -45.1061 -45.0986 -13.6328 -13.5938 -13.5059 -13.4860 -13.4680 -13.4677
   -12.3785 -11.9935 -11.8391 -10.9273 -10.7505 -10.5710   4.3363   4.9067
     5.7075   6.6649   6.8754   7.0983   8.1274   8.1640   8.7130   8.8497
     9.1647   9.2321   9.2644   9.5234   9.5762  10.3669  11.2476  12.2538
    22.5483  22.8909  22.9538  23.0979  23.2915  23.3604  23.3749  23.5038
    23.7160  24.0035  24.4660  25.4408  26.4181  27.0140  27.1820  27.9520
    28.1324  28.5684  29.0724  29.1703  29.6280  30.0402  30.3926  30.7614
    30.9932  31.0570  31.6532  32.5650  32.9530  33.3324  33.6555  34.4783
    34.5096  35.3422  36.2555  36.7368  37.0690  37.1343

          k = 0.1818 0.0000 0.3895 (  2660 PWs)   bands (ev):

   -45.1063 -45.0981 -13.6580 -13.6351 -13.4999 -13.4810 -13.4794 -13.4715
   -12.1848 -12.0410 -11.6064 -11.2724 -10.7555 -10.5797   4.3549   4.9403
     6.6600   6.6741   7.1074   7.4690   7.8989   8.1761   8.5184   8.5392
     8.7519   9.1818   9.2570   9.4796   9.5454   9.6705  11.2356  12.2460
    22.3473  22.5518  22.6246  22.9268  23.3287  23.3290  23.4776  23.5432
    23.6456  24.0376  24.7660  25.2963  26.9566  27.3162  27.4288  27.8901
    28.8458  29.1590  29.4432  29.6306  29.6834  30.2110  30.4513  30.6102
    30.6635  31.0037  32.1304  32.2900  32.6814  33.5417  33.7818  33.8708
    34.2171  35.4570  36.0482  36.4501  36.5229  37.0797

          k = 0.1818 0.1515 0.0000 (  2672 PWs)   bands (ev):

   -45.1152 -45.1085 -13.5955 -13.5534 -13.5362 -13.4946 -13.4802 -13.4683
   -12.5347 -12.0132 -11.9390 -10.7489 -10.6905 -10.5619   4.3024   4.6521
     5.2761   6.6518   6.8212   6.9003   8.2408   8.2688   8.7446   8.9864
     9.1629   9.1640   9.3313   9.3985   9.5336  11.2310  11.5400  12.2610
    22.6764  23.0810  23.1888  23.3099  23.3289  23.4041  23.5091  23.6313
[...]
     2.0171   2.1320   2.2208   2.2331   2.2914   2.5210   3.3405   3.6073
    17.2207  17.2981  17.4427  17.5638  17.6290  17.6934  17.7135  17.8441
    17.8903  17.9933  18.7908  19.1289  20.8417  21.1163  21.2797  21.7901
    21.9743  22.1708  22.4558  22.6108  22.8484  23.0049  23.1151  23.9351
    24.0430  24.1963  24.3277  24.8415  25.0256  25.6386  26.0809  26.2048
    27.3424  27.5494  28.2066  28.3868  28.5898  28.6263

          k = 0.1683 0.2806 0.2405 (  4445 PWs)   bands (ev):

   -51.3561 -51.3557 -19.7733 -19.7701 -19.7489 -19.7277 -19.7220 -19.7113
   -18.6863 -18.5627 -18.4854 -18.1089 -18.0492 -17.9694  -0.5787  -0.2210
     0.0992   0.8726   0.9395   1.0253   1.1789   1.7090   1.7606   1.8822
     2.0199   2.0617   2.1944   2.2523   2.2972   2.5345   2.8422   3.3402
    17.2334  17.2689  17.4180  17.4929  17.5758  17.6091  17.6810  17.7468
    17.7842  17.9301  18.9715  19.4316  21.2007  21.3974  21.7176  21.8318
    22.1699  22.3960  22.5118  22.7983  23.1184  23.2546  23.3174  23.8475
    24.0007  24.3738  24.4942  24.8853  25.1174  25.3381  25.7368  25.8546
    27.2945  27.3921  27.8108  28.1290  28.3843  28.4935

          k = 0.1683 0.2806 0.3607 (  4459 PWs)   bands (ev):

   -51.3581 -51.3574 -19.7861 -19.7818 -19.7451 -19.7315 -19.7259 -19.7201
   -18.6326 -18.5341 -18.3961 -18.2263 -18.1023 -17.9715  -0.5713   0.0364
     0.5908   0.9236   0.9701   1.0635   1.2492   1.6158   1.6770   1.7171
     1.8950   1.9860   2.1400   2.2485   2.2651   2.3071   2.5463   3.3387
    17.1069  17.1670  17.3436  17.4501  17.5491  17.6185  17.6758  17.7232
    17.7640  17.9678  19.3374  19.6142  21.0599  21.5339  21.8219  22.1310
    22.2540  22.4797  22.7476  22.8772  23.2069  23.5541  23.6718  23.8324
    24.1297  24.2018  24.4912  24.9334  25.3549  25.5790  25.8117  26.1062
    26.7388  27.3425  27.5920  27.7891  27.8603  28.3816

          k = 0.1683-0.4209 0.0000 (  4440 PWs)   bands (ev):

   -51.3550 -51.3550 -19.7795 -19.7749 -19.7227 -19.7204 -19.7198 -19.7146
   -18.7148 -18.6661 -18.3249 -18.3039 -17.9672 -17.8817  -0.9410  -0.5709
     0.7227   0.7327   1.1845   1.2256   1.2609   1.3936   1.5528   1.7621
     1.7879   2.0817   2.1654   2.2352   2.2830   2.3402   3.3398   3.9051
    17.1008  17.2023  17.2390  17.4499  17.7232  17.7356  17.7895  17.8803
    17.9475  18.1284  18.9811  19.0638  21.0529  21.0622  21.1643  21.4892
    21.6903  22.2123  22.5082  22.6336  23.3128  23.4299  23.4631  23.5524
    23.7228  24.0192  24.5779  24.9278  25.2882  26.1369  26.2957  26.5116
    26.6798  26.9638  27.8171  27.9909  28.4994  28.7975

          k = 0.1683-0.4209 0.1202 (  4440 PWs)   bands (ev):

   -51.3550 -51.3550 -19.7769 -19.7747 -19.7278 -19.7272 -19.7169 -19.7158
   -18.6797 -18.6556 -18.3187 -18.3091 -17.9683 -17.9275  -0.7505  -0.5715
     0.7532   0.7603   1.1722   1.2000   1.2766   1.3137   1.6373   1.6829
     1.8949   1.9776   2.2268   2.2536   2.2648   2.2983   3.3406   3.6063
    17.1240  17.1397  17.3830  17.4521  17.6618  17.7282  17.7492  17.7966
    17.8935  18.0054  19.0974  19.1314  21.1762  21.3404  21.3623  21.5514
    21.9106  22.3072  22.5653  22.6550  23.1391  23.3142  23.6434  23.7263
    23.8176  24.0686  24.4778  24.7871  25.5869  25.8264  26.1217  26.1824
    26.9265  26.9570  27.9845  28.0631  28.2598  28.3375

          k = 0.1683-0.4209 0.2405 (  4450 PWs)   bands (ev):

   -51.3566 -51.3566 -19.7851 -19.7818 -19.7349 -19.7330 -19.7189 -19.7184
   -18.6325 -18.5803 -18.3221 -18.3059 -18.0509 -17.9708  -0.5705  -0.2069
     0.8058   0.8337   1.0897   1.1452   1.2916   1.3442   1.6473   1.6505
     1.9044   1.9647   2.1699   2.2491   2.2624   2.2993   2.8412   3.3388
    17.1172  17.1362  17.3962  17.5014  17.5061  17.6329  17.6814  17.7224
    17.8013  17.9529  19.3762  19.4114  21.1571  21.5609  21.7067  21.9196
    22.2775  22.6347  22.7235  22.8951  23.0896  23.2111  23.7342  23.8811
    23.9919  24.1298  24.5175  24.8503  25.4643  25.7031  26.0269  26.2955
    26.7521  26.8280  27.5817  27.7665  28.0491  28.4525

          k = 0.1683-0.4209 0.3607 (  4460 PWs)   bands (ev):

   -51.3580 -51.3579 -19.7922 -19.7863 -19.7368 -19.7331 -19.7273 -19.7263
   -18.6125 -18.4330 -18.3337 -18.3077 -18.2039 -17.9729  -0.5693   0.5764
     0.8217   0.9420   0.9928   1.1292   1.2649   1.4668   1.5395   1.6249
     1.7509   1.9594   2.0593   2.0806   2.2745   2.2796   2.3190   3.3382
    17.0489  17.1293  17.1759  17.5040  17.5453  17.5936  17.6195  17.7604
    17.7661  18.0058  19.7459  19.7609  20.8054  21.4051  21.8958  22.1638
    22.3045  22.9809  22.9867  23.2213  23.2258  23.5467  23.6826  23.7466
    23.9005  24.0954  24.4324  25.1142  25.9495  26.2441  26.2695  26.4290
    26.6610  26.8206  27.3659  27.5027  27.9106  28.0070

          k = 0.3367 0.0000 0.0000 (  4440 PWs)   bands (ev):

   -51.3580 -51.3515 -19.7629 -19.7501 -19.7279 -19.7279 -19.7202 -19.7202
   -18.7898 -18.6954 -18.4312 -18.1866 -17.8788 -17.8788  -0.9732  -0.9097
     0.5549   0.6678   0.6678   1.1433   1.5130   1.6755   1.6755   1.9441
     1.9966   2.0910   2.1388   2.1388   2.2990   2.2990   3.9092   3.9092
    17.1103  17.3497  17.3497  17.3768  17.7667  17.8031  17.9261  17.9857
    18.0956  18.0956  18.7727  18.8666  20.6044  20.6044  20.7592  21.4627
    21.5629  22.2036  22.2036  22.2733  22.7980  23.3775  23.5041  23.5041
    23.8229  24.2604  24.9111  24.9111  24.9203  24.9920  26.9863  27.0808
    27.0809  27.4073  27.5262  28.5271  28.9346  28.9347

          k = 0.3367 0.0000 0.1202 (  4452 PWs)   bands (ev):

   -51.3566 -51.3561 -19.7737 -19.7685 -19.7303 -19.7256 -19.7233 -19.7163
   -18.7655 -18.6726 -18.4306 -18.1873 -17.9250 -17.8802  -0.9468  -0.7464
     0.5086   0.6990   0.7638   1.1230   1.4535   1.5958   1.7563   1.8715
     1.9779   2.0956   2.1158   2.2516   2.2662   2.3090   3.6076   3.9073
    17.1243  17.2951  17.3067  17.4664  17.7462  17.7809  17.8191  17.9497
    17.9658  18.1084  18.8062  18.9890  20.7566  20.7727  20.9774  21.4856
    21.8475  22.1570  22.2641  22.4109  22.9265  23.3981  23.4653  23.6846
    23.8489  24.0225  24.6175  24.8770  24.9468  25.5345  26.5312  26.6822
    26.9311  27.4631  28.1578  28.3230  28.5760  29.0302

          k = 0.3367 0.0000 0.2405 (  4454 PWs)   bands (ev):

   -51.3587 -51.3549 -19.7897 -19.7805 -19.7282 -19.7233 -19.7221 -19.7182
   -18.7172 -18.5942 -18.4283 -18.1896 -18.0477 -17.8831  -0.9425  -0.2107
     0.4721   0.7810   0.9259   1.0663   1.4225   1.4873   1.6721   1.8317
     1.9307   2.0620   2.2026   2.2288   2.3174   2.3557   2.8370   3.9046
    17.1029  17.1557  17.2575  17.4626  17.6246  17.6347  17.8048  17.8423
    17.9551  18.1465  19.0077  19.2968  20.7657  21.2369  21.3325  21.6029
    21.8288  22.3270  22.8458  23.0552  23.2175  23.2424  23.4253  23.5862
    23.8497  23.8772  24.4995  24.9977  25.5245  25.8116  26.0954  26.2564
    26.5601  27.2351  27.9480  28.2904  28.3452  28.8316

          k = 0.3367 0.0000 0.3607 (  4448 PWs)   bands (ev):

   -51.3564 -51.3561 -19.7983 -19.7882 -19.7294 -19.7211 -19.7160 -19.7157
   -18.6844 -18.4919 -18.3927 -18.2426 -18.1615 -17.8855  -0.9397   0.3899
     0.6246   0.8690   1.0457   1.0649   1.4347   1.4433   1.5075   1.6745
     1.7865   2.0154   2.0997   2.1819   2.3149   2.3392   2.3947   3.9028
    16.9899  17.0442  17.0957  17.4888  17.5596  17.5681  17.8689  17.8732
    17.9429  18.1854  19.3596  19.5401  20.4695  21.2705  21.5689  21.8096
    22.1647  22.6637  22.7045  23.1378  23.4060  23.4157  23.5256  23.5550
    23.8571  23.8875  24.9977  25.4276  25.8617  25.9329  26.0663  26.3130
    26.4286  26.5989  27.4999  27.9918  28.1692  28.4112

          k = 0.3367 0.1403 0.0000 (  4452 PWs)   bands (ev):

   -51.3572 -51.3556 -19.7766 -19.7698 -19.7309 -19.7245 -19.7226 -19.7167
   -18.7579 -18.6637 -18.4304 -18.1875 -17.9410 -17.8805  -0.9455  -0.6796
     0.4999   0.7095   0.7892   1.1154   1.4433   1.5761   1.7743   1.8401
     1.9716   2.1080   2.1179   2.2562   2.2687   2.3132   3.5045   3.9062
    17.1250  17.2896  17.2918  17.4772  17.7364  17.7757  17.7845  17.9130
    17.9641  18.1131  18.8245  19.0314  20.7892  20.8319  21.0537  21.4843
    21.8570  22.2444  22.2788  22.4766  22.9706  23.3956  23.4555  23.6995
    23.8554  23.9120  24.7178  24.8498  24.9592  25.5894  26.4386  26.6528
    26.8001  27.5086  28.2453  28.2935  28.4920  28.9815

          k = 0.3367 0.1403 0.1202 (  4438 PWs)   bands (ev):

   -51.3553 -51.3541 -19.7723 -19.7713 -19.7375 -19.7202 -19.7126 -19.7124
   -18.7297 -18.6452 -18.4294 -18.1875 -17.9420 -17.9262  -0.7626  -0.6709
     0.4753   0.7732   0.8280   1.1120   1.3156   1.6810   1.7115   1.9109
     1.9492   1.9835   2.2240   2.2479   2.2759   2.2878   3.5040   3.6068
    17.1579  17.2118  17.3958  17.4973  17.6940  17.7280  17.7457  17.8384
    17.9374  17.9893  18.8767  19.1437  20.8740  21.1396  21.2268  21.8324
    21.9595  22.2225  22.2583  22.4990  23.0692  23.2134  23.4746  23.8088
    23.9155  24.1690  24.4474  24.8593  25.0952  25.6447  26.0186  26.2596
    27.0647  27.7996  28.0367  28.1510  28.4083  28.6152

          k = 0.3367 0.1403 0.2405 (  4450 PWs)   bands (ev):

   -51.3568 -51.3561 -19.7834 -19.7799 -19.7423 -19.7263 -19.7189 -19.7139
   -18.6738 -18.5771 -18.4270 -18.1893 -18.0497 -17.9446  -0.6840  -0.2086
     0.4495   0.8715   0.9321   1.0751   1.2305   1.6496   1.6915   1.8620
     1.9157   2.0076   2.1898   2.2559   2.2792   2.3176   2.8408   3.5025
    17.1496  17.1734  17.3827  17.4604  17.5825  17.6512  17.7024  17.7695
    17.7945  17.9990  19.0945  19.4431  21.0385  21.4642  21.6979  21.8596
    22.0395  22.3693  22.6833  22.8609  23.2349  23.3111  23.4950  23.7656
    23.9894  24.1555  24.5835  25.0337  25.1729  25.5396  25.7327  26.0320
    26.8919  27.4735  27.8716  27.9994  28.0704  28.4951

          k = 0.3367 0.1403 0.3607 (  4462 PWs)   bands (ev):

   -51.3582 -51.3581 -19.7948 -19.7851 -19.7365 -19.7328 -19.7284 -19.7212
   -18.6393 -18.4795 -18.3898 -18.2382 -18.1687 -17.9468  -0.6816   0.3988
     0.6008   0.9622   1.0025   1.0081   1.3198   1.5520   1.6030   1.7015
     1.8252   1.9837   2.0979   2.1687   2.2856   2.2976   2.3423   3.5008
    17.0428  17.1251  17.2013  17.4719  17.5707  17.5939  17.7038  17.7740
    17.7908  18.0476  19.4712  19.6817  20.8076  21.4844  21.8675  21.9411
    22.2345  22.7054  22.7985  23.1045  23.3486  23.5486  23.6506  23.7326
    23.9455  24.0973  24.8246  24.9040  25.4375  25.8706  26.0842  26.3209
    26.5591  27.1821  27.5359  27.6718  27.9233  28.2713

          k = 0.3367 0.2806 0.0000 (  4452 PWs)   bands (ev):

   -51.3577 -51.3556 -19.7936 -19.7872 -19.7279 -19.7199 -19.7188 -19.7181
   -18.7033 -18.5564 -18.4250 -18.1935 -18.0972 -17.8840  -0.9416   0.0259
     0.4716   0.8140   0.9774   1.0481   1.4270   1.4616   1.6088   1.8275
     1.9092   2.0436   2.1830   2.2663   2.3265   2.3729   2.5373   3.9040
    17.0848  17.0909  17.2049  17.4538  17.5983  17.6017  17.8302  17.8485
    17.9505  18.1616  19.1180  19.4046  20.6761  21.3212  21.4338  21.5735
    22.0636  22.3566  22.8838  22.9818  23.3349  23.4174  23.4437  23.5579
    23.8768  24.1782  24.2755  25.0184  25.8340  25.9791  26.0153  26.0981
    26.5179  26.9028  27.9097  28.1749  28.2975  28.6129

          k = 0.3367 0.2806 0.1202 (  4455 PWs)   bands (ev):

   -51.3579 -51.3563 -19.7896 -19.7842 -19.7364 -19.7303 -19.7217 -19.7143
   -18.6706 -18.5452 -18.4239 -18.1926 -18.0996 -17.9296  -0.7507   0.0297
     0.4525   0.8865   0.9667   1.0431   1.2714   1.6136   1.6377   1.8450
     1.9089   2.0125   2.1714   2.2656   2.2922   2.3379   2.5436   3.6045
    17.1022  17.1441  17.2967  17.4449  17.5833  17.6298  17.7520  17.7799
    17.7993  18.0544  19.1842  19.5130  20.9210  21.4516  21.7249  21.8253
    22.0829  22.4057  22.7755  22.8792  23.3486  23.4571  23.6682  23.7250
    23.8988  24.2038  24.3988  25.0317  25.3265  25.6715  25.8200  26.1274
    26.7198  27.2667  27.8419  27.9551  28.0345  28.4940

          k = 0.3367 0.2806 0.2405 (  4459 PWs)   bands (ev):

   -51.3586 -51.3571 -19.7814 -19.7729 -19.7490 -19.7356 -19.7339 -19.7242
   -18.5820 -18.5115 -18.4242 -18.1902 -18.1049 -18.0527  -0.2081   0.0390
     0.4327   0.9139   0.9486   1.1104   1.2147   1.6525   1.7714   1.8312
     1.8743   2.0122   2.1381   2.2146   2.2505   2.2676   2.5485   2.8428
    17.1730  17.2450  17.4145  17.4449  17.4828  17.5862  17.6003  17.6764
    17.7259  17.8112  19.4349  19.8103  21.3479  21.5304  22.0300  22.1534
    22.2321  22.7394  22.7989  22.9532  23.1540  23.5510  23.6286  23.9955
    24.3237  24.4866  24.8044  24.8922  25.0472  25.2479  25.6797  25.8055
    27.0637  27.1733  27.6333  27.7678  27.9995  28.1081

          k = 0.3367 0.2806 0.3607 (  4457 PWs)   bands (ev):

   -51.3589 -51.3564 -19.7797 -19.7676 -19.7504 -19.7410 -19.7376 -19.7272
   -18.5138 -18.4473 -18.3904 -18.2284 -18.1825 -18.1068   0.0428   0.4195
     0.5927   0.8781   0.8909   1.1904   1.3206   1.6152   1.6664   1.8109
     1.8640   1.9711   2.0817   2.1339   2.1924   2.2041   2.2268   2.5466
    17.1917  17.2602  17.3963  17.4008  17.4589  17.5780  17.5836  17.6315
    17.6547  17.7382  19.8634  20.0949  21.3598  21.4588  22.0765  22.1885
    22.3347  22.5705  22.9437  23.0073  23.5307  23.5766  23.8254  23.8586
    24.3680  24.7962  24.9563  25.0845  25.4196  25.6417  25.7808  25.8830
    26.9176  27.2673  27.6186  27.6450  27.8494  28.0073

          k = 0.3367-0.4209 0.0000 (  4452 PWs)   bands (ev):

   -51.3569 -51.3569 -19.7981 -19.7904 -19.7310 -19.7248 -19.7171 -19.7166
   -18.6797 -18.4788 -18.3444 -18.3019 -18.1677 -17.8859  -0.9396   0.4130
     0.8041   0.8845   1.0663   1.2609   1.2742   1.4341   1.4628   1.4752
     1.7697   2.0082   2.0658   2.1693   2.3253   2.3434   2.3994   3.9020
    16.9640  17.0266  17.0718  17.5231  17.5398  17.5519  17.8763  17.8834
    17.9407  18.1915  19.4848  19.5234  20.4036  21.2549  21.5661  21.9353
    22.1628  22.6254  22.8061  23.1393  23.4006  23.4534  23.5404  23.5535
    23.8243  23.8373  25.0042  25.7965  25.8605  25.9183  26.2608  26.3798
    26.5408  26.5538  26.9048  27.9583  28.0704  28.3605

          k = 0.3367-0.4209 0.1202 (  4452 PWs)   bands (ev):

   -51.3569 -51.3568 -19.7908 -19.7839 -19.7322 -19.7279 -19.7245 -19.7234
   -18.6464 -18.4708 -18.3376 -18.3023 -18.1724 -17.9312  -0.7488   0.4129
     0.8142   0.9118   1.0265   1.1808   1.2664   1.4333   1.5238   1.5754
     1.8071   1.9834   2.0722   2.1591   2.2973   2.3126   2.3582   3.6027
    17.0114  17.0835  17.1508  17.5066  17.5361  17.5959  17.7440  17.8088
    17.8158  18.0904  19.5810  19.6129  20.6671  21.5040  21.7592  21.8755
    22.2249  22.7960  22.8122  23.3000  23.3890  23.5723  23.6515  23.6636
    23.6760  23.9844  24.8785  24.9053  25.7919  26.1954  26.2221  26.4737
    26.7018  26.7219  27.0667  27.6894  28.0332  28.2575

          k = 0.3367-0.4209 0.2405 (  4464 PWs)   bands (ev):

   -51.3587 -51.3585 -19.7818 -19.7789 -19.7441 -19.7431 -19.7336 -19.7322
   -18.5506 -18.4521 -18.3230 -18.3061 -18.1818 -18.0543  -0.2031   0.4198
     0.8262   0.8816   1.0189   1.0737   1.3271   1.4539   1.6330   1.7100
     1.8815   1.9305   2.0830   2.1216   2.2203   2.2308   2.2512   2.8418
    17.1440  17.2125  17.3223  17.4382  17.4753  17.5751  17.6184  17.6556
    17.6896  17.8285  19.8954  19.9071  21.1600  21.4352  21.9578  22.2866
    22.6507  22.6920  22.9186  23.0595  23.1485  23.6459  23.7676  23.8345
    24.1791  24.5390  24.6506  24.9411  25.6859  25.9182  26.1392  26.3178
    26.7061  26.8964  27.4702  27.7022  27.7468  27.8958

          k = 0.3367-0.4209 0.3607 (  4466 PWs)   bands (ev):

   -51.3584 -51.3583 -19.7669 -19.7661 -19.7501 -19.7496 -19.7452 -19.7450
   -18.4338 -18.4046 -18.3142 -18.3112 -18.2214 -18.1874   0.4300   0.5996
     0.8124   0.8220   1.0374   1.0425   1.3511   1.4247   1.7408   1.7769
     1.8930   1.9089   2.0549   2.0657   2.1057   2.1219   2.1273   2.1752
    17.2771  17.2960  17.3873  17.3948  17.4766  17.5259  17.5674  17.5740
    17.6073  17.6235  20.3534  20.3543  21.4614  21.4757  21.9813  22.0818
    22.1234  22.1296  23.1766  23.2056  23.5358  23.5359  23.7262  23.7656
    24.9593  25.1595  25.3010  25.5326  25.6042  25.6562  26.2282  26.3121
    26.8117  26.8926  27.6172  27.6331  27.7007  27.8602

     the Fermi energy is    24.5355 ev

!    total energy              =   -1016.12394865 Ry
     Harris-Foulkes estimate   =   -1016.12394879 Ry
     estimated scf accuracy    <       0.00000016 Ry

     The total energy is the sum of the following terms:

     one-electron contribution =     -42.36996835 Ry
     hartree contribution      =     113.26977227 Ry
     xc contribution           =    -114.92154649 Ry
     ewald contribution        =    -971.66190597 Ry
     smearing contrib. (-TS)   =      -0.44030010 Ry

     convergence has been achieved in  21 iterations

     Forces acting on atoms (Ry/au):

     atom    1 type  1   force =     0.00000000    0.00000000    0.00000000
     atom    2 type  1   force =     0.00000000    0.00000000    0.00000000
     atom    3 type  1   force =     0.00000000    0.00000000    0.00000000
     atom    4 type  1   force =     0.00000000    0.00000000    0.00000000
     atom    5 type  1   force =     0.00000000    0.00000000    0.00000000
     atom    6 type  1   force =     0.00000000    0.00000000    0.00000000
     atom    7 type  2   force =     0.00000000    0.00000000    0.00000000
     atom    8 type  2   force =     0.00000000    0.00000000    0.00000000

     Total force =     0.000000     Total SCF correction =     0.000000


     entering subroutine stress ...

          total   stress  (Ry/bohr**3)                   (kbar)     P=  321.44
   0.00218511   0.00000000   0.00000000        321.44      0.00      0.00
   0.00000000   0.00218511   0.00000000          0.00    321.44      0.00
   0.00000000   0.00000000   0.00218511          0.00      0.00    321.44


     Writing output data file Prototype-La-cP8-Cr3Si.save
 
     init_run     :     10.02s CPU     12.46s WALL (       2 calls)
     electrons    :   1241.73s CPU   1804.41s WALL (       5 calls)
     update_pot   :      1.40s CPU      1.43s WALL (       3 calls)
     forces       :      4.00s CPU      4.31s WALL (       5 calls)
     stress       :     10.55s CPU     10.97s WALL (       5 calls)

     Called by init_run:
     wfcinit      :      9.45s CPU     11.87s WALL (       2 calls)
     potinit      :      0.21s CPU      0.21s WALL (       2 calls)

     Called by electrons:
     c_bands      :   1195.74s CPU   1395.95s WALL (      61 calls)
     sum_band     :     45.60s CPU     59.16s WALL (      61 calls)
     v_of_rho     :      0.07s CPU      0.08s WALL (      66 calls)
     mix_rho      :      0.07s CPU      0.09s WALL (      61 calls)

     Called by c_bands:
     init_us_2    :      2.76s CPU      3.80s WALL (    6432 calls)
     ccgdiagg     :   1058.44s CPU   1213.20s WALL (    3322 calls)
     wfcrot       :    143.46s CPU    188.36s WALL (    3370 calls)

     Called by *cgdiagg:
     h_psi        :    845.81s CPU   1019.90s WALL ( 1205987 calls)
     cdiaghg      :      6.28s CPU      6.57s WALL (    3370 calls)

     Called by h_psi:
     add_vuspsi   :     75.52s CPU    105.18s WALL ( 1205987 calls)

     General routines
     calbec       :    291.72s CPU    289.26s WALL ( 2409084 calls)
     fft          :      0.11s CPU      0.13s WALL (     287 calls)
     fftw         :    622.12s CPU    741.20s WALL ( 3091594 calls)
     davcio       :      2.12s CPU      4.80s WALL (    9360 calls)
 
     Parallel routines
     fft_scatter  :    270.75s CPU    310.71s WALL ( 3091881 calls)
 
     PWSCF        : 21m 8.44s CPU    30m36.58s WALL

 
   This run was terminated on:  16:51: 5  22Mar2018            

=------------------------------------------------------------------------------=
   JOB DONE.
=------------------------------------------------------------------------------=
