
     Program PWSCF v.5.0.2 starts on 22Mar2018 at  0:32:15 

     This program is part of the open-source Quantum ESPRESSO suite
     for quantum simulation of materials; please cite
         "P. Giannozzi et al., J. Phys.:Condens. Matter 21 395502 (2009);
          URL http://www.quantum-espresso.org", 
     in publications or presentations arising from this work. More details at
     http://www.quantum-espresso.org/quote.php

     Parallel version (MPI), running on     4 processors
     R & G space division:  proc/nbgrp/npool/nimage =       4

     Current dimensions of program PWSCF are:
     Max number of different atomic species (ntypx) = 10
     Max number of k-points (npk) =  40000
     Max angular momentum in pseudopotentials (lmaxx) =  3
     Waiting for input...
     Reading input from standard input

     Subspace diagonalization in iterative solution of the eigenvalue problem:
     a serial algorithm will be used

 
     Parallelization info
     --------------------
     sticks:   dense  smooth     PW     G-vecs:    dense   smooth      PW
     Min         233     233     69                 5311     5311     851
     Max         234     234     70                 5314     5314     854
     Sum         933     933    277                21247    21247    3407
 


     bravais-lattice index     =            0
     lattice parameter (alat)  =       8.5346  a.u.
     unit-cell volume          =     621.6493 (a.u.)^3
     number of atoms/cell      =            8
     number of atomic types    =            2
     number of electrons       =       112.00
     number of Kohn-Sham states=           67
     kinetic-energy cutoff     =      40.0000  Ry
     charge density cutoff     =     160.0000  Ry
     convergence threshold     =      1.0E-04
     mixing beta               =       0.7000
     number of iterations used =            8  plain     mixing
     Exchange-correlation      = SLA-PZ-NOGX-NOGC ( 1 1 0 0 0)
     EXX-fraction              =        0.00
     nstep                     =           50


     celldm(1)=   8.534573  celldm(2)=   0.000000  celldm(3)=   0.000000
     celldm(4)=   0.000000  celldm(5)=   0.000000  celldm(6)=   0.000000

     crystal axes: (cart. coord. in units of alat)
               a(1) = (   1.000000   0.000000   0.000000 )  
               a(2) = (   0.000000   1.000000   0.000000 )  
               a(3) = (   0.000000   0.000000   1.000000 )  

     reciprocal axes: (cart. coord. in units 2 pi/alat)
               b(1) = (  1.000000  0.000000  0.000000 )  
               b(2) = (  0.000000  1.000000  0.000000 )  
               b(3) = (  0.000000  0.000000  1.000000 )  


     PseudoPot. # 1 for Ce read from file:
     /home/jld5415/pp.La/Ce.UPF
     MD5 check sum: 44451aa79a44a00cf2bc029dc19922f6
     Pseudo is Norm-conserving, Zval = 12.0
     Generated in analytical, separable form
     Using radial grid of 1255 points,  6 beta functions with: 
                l(1) =   0
                l(2) =   0
                l(3) =   1
                l(4) =   1
                l(5) =   2
                l(6) =   3

     PseudoPot. # 2 for Dy read from file:
     /home/jld5415/pp.La/Dy.UPF
     MD5 check sum: 9597327bec62616a94a14d07f3fd9936
     Pseudo is Norm-conserving, Zval = 20.0
     Generated in analytical, separable form
     Using radial grid of 1265 points,  6 beta functions with: 
                l(1) =   0
                l(2) =   0
                l(3) =   1
                l(4) =   1
                l(5) =   2
                l(6) =   3

     atomic species   valence    mass     pseudopotential
        Cr            12.00    51.99610     Ce( 1.00)
        Si            20.00    28.08550     Dy( 1.00)

     48 Sym. Ops., with inversion, found (24 have fractional translation)



   Cartesian axes

     site n.     atom                  positions (alat units)
         1           Cr  tau(   1) = (   0.0000000   0.5000000   0.2500000  )
         2           Cr  tau(   2) = (   0.0000000   0.5000000   0.7500000  )
         3           Cr  tau(   3) = (   0.5000000   0.7500000   0.0000000  )
         4           Cr  tau(   4) = (   0.5000000   0.2500000   0.0000000  )
         5           Cr  tau(   5) = (   0.7500000   0.0000000   0.5000000  )
         6           Cr  tau(   6) = (   0.2500000   0.0000000   0.5000000  )
         7           Si  tau(   7) = (   0.5000000   0.5000000   0.5000000  )
         8           Si  tau(   8) = (   0.0000000   0.0000000   0.0000000  )

     number of k points=    48  gaussian smearing, width (Ry)=  0.1000
                       cart. coord. in units 2pi/alat
        k(    1) = (   0.0000000   0.0000000   0.0000000), wk =   0.0095238
        k(    2) = (   0.0000000   0.0000000   0.1428571), wk =   0.0190476
        k(    3) = (   0.0000000   0.0000000   0.2857143), wk =   0.0190476
        k(    4) = (   0.0000000   0.0000000   0.4285714), wk =   0.0190476
        k(    5) = (   0.0000000   0.1666667   0.0000000), wk =   0.0190476
        k(    6) = (   0.0000000   0.1666667   0.1428571), wk =   0.0380952
        k(    7) = (   0.0000000   0.1666667   0.2857143), wk =   0.0380952
        k(    8) = (   0.0000000   0.1666667   0.4285714), wk =   0.0380952
        k(    9) = (   0.0000000   0.3333333   0.0000000), wk =   0.0190476
        k(   10) = (   0.0000000   0.3333333   0.1428571), wk =   0.0380952
        k(   11) = (   0.0000000   0.3333333   0.2857143), wk =   0.0380952
        k(   12) = (   0.0000000   0.3333333   0.4285714), wk =   0.0380952
        k(   13) = (   0.0000000  -0.5000000   0.0000000), wk =   0.0095238
        k(   14) = (   0.0000000  -0.5000000   0.1428571), wk =   0.0190476
        k(   15) = (   0.0000000  -0.5000000   0.2857143), wk =   0.0190476
        k(   16) = (   0.0000000  -0.5000000   0.4285714), wk =   0.0190476
        k(   17) = (   0.2000000   0.0000000   0.0000000), wk =   0.0190476
        k(   18) = (   0.2000000   0.0000000   0.1428571), wk =   0.0380952
        k(   19) = (   0.2000000   0.0000000   0.2857143), wk =   0.0380952
        k(   20) = (   0.2000000   0.0000000   0.4285714), wk =   0.0380952
        k(   21) = (   0.2000000   0.1666667   0.0000000), wk =   0.0380952
        k(   22) = (   0.2000000   0.1666667   0.1428571), wk =   0.0761905
        k(   23) = (   0.2000000   0.1666667   0.2857143), wk =   0.0761905
        k(   24) = (   0.2000000   0.1666667   0.4285714), wk =   0.0761905
        k(   25) = (   0.2000000   0.3333333   0.0000000), wk =   0.0380952
        k(   26) = (   0.2000000   0.3333333   0.1428571), wk =   0.0761905
        k(   27) = (   0.2000000   0.3333333   0.2857143), wk =   0.0761905
        k(   28) = (   0.2000000   0.3333333   0.4285714), wk =   0.0761905
        k(   29) = (   0.2000000  -0.5000000   0.0000000), wk =   0.0190476
        k(   30) = (   0.2000000  -0.5000000   0.1428571), wk =   0.0380952
        k(   31) = (   0.2000000  -0.5000000   0.2857143), wk =   0.0380952
        k(   32) = (   0.2000000  -0.5000000   0.4285714), wk =   0.0380952
        k(   33) = (   0.4000000   0.0000000   0.0000000), wk =   0.0190476
        k(   34) = (   0.4000000   0.0000000   0.1428571), wk =   0.0380952
        k(   35) = (   0.4000000   0.0000000   0.2857143), wk =   0.0380952
        k(   36) = (   0.4000000   0.0000000   0.4285714), wk =   0.0380952
        k(   37) = (   0.4000000   0.1666667   0.0000000), wk =   0.0380952
        k(   38) = (   0.4000000   0.1666667   0.1428571), wk =   0.0761905
        k(   39) = (   0.4000000   0.1666667   0.2857143), wk =   0.0761905
        k(   40) = (   0.4000000   0.1666667   0.4285714), wk =   0.0761905
        k(   41) = (   0.4000000   0.3333333   0.0000000), wk =   0.0380952
        k(   42) = (   0.4000000   0.3333333   0.1428571), wk =   0.0761905
        k(   43) = (   0.4000000   0.3333333   0.2857143), wk =   0.0761905
        k(   44) = (   0.4000000   0.3333333   0.4285714), wk =   0.0761905
        k(   45) = (   0.4000000  -0.5000000   0.0000000), wk =   0.0190476
        k(   46) = (   0.4000000  -0.5000000   0.1428571), wk =   0.0380952
        k(   47) = (   0.4000000  -0.5000000   0.2857143), wk =   0.0380952
        k(   48) = (   0.4000000  -0.5000000   0.4285714), wk =   0.0380952

     Dense  grid:    21247 G-vectors     FFT dimensions: (  36,  36,  36)

     Largest allocated arrays     est. size (Mb)     dimensions
        Kohn-Sham Wavefunctions         0.70 Mb     (    683,   67)
        NL pseudopotentials             1.67 Mb     (    683,  160)
        Each V/rho on FFT grid          0.18 Mb     (  11664)
        Each G-vector array             0.04 Mb     (   5314)
        G-vector shells                 0.04 Mb     (   5314)
     Largest temporary arrays     est. size (Mb)     dimensions
        Each subspace H/S matrix        0.07 Mb     (  67,  67)
        Each <psi_i|beta_j> matrix      0.16 Mb     (    160,   67)
        Arrays for rho mixing           1.42 Mb     (  11664,   8)

     Initial potential from superposition of free atoms

     Starting from uniform charge
     Starting wfc are    0 randomized atomic wfcs

     total cpu time spent up to now is        3.0 secs

     Self-consistent Calculation

     iteration #  1     ecut=    40.00 Ry     beta=0.70
     CG style diagonalization
     c_bands:  1 eigenvalues not converged
     ethr =  1.00E-02,  avg # of iterations = 16.6

     total cpu time spent up to now is       47.2 secs

     total energy              =    -516.89532460 Ry
     Harris-Foulkes estimate   =   -1195.45479830 Ry
     estimated scf accuracy    <     810.23724539 Ry

     iteration #  2     ecut=    40.00 Ry     beta=0.70
     CG style diagonalization
     c_bands:  2 eigenvalues not converged
     c_bands:  1 eigenvalues not converged
     c_bands:  3 eigenvalues not converged
     c_bands:  1 eigenvalues not converged
     c_bands:  4 eigenvalues not converged
     c_bands:  2 eigenvalues not converged
     c_bands:  2 eigenvalues not converged
     c_bands:  1 eigenvalues not converged
     c_bands:  4 eigenvalues not converged
     c_bands:  1 eigenvalues not converged
     c_bands:  1 eigenvalues not converged
     c_bands:  4 eigenvalues not converged
     c_bands:  4 eigenvalues not converged
     c_bands:  3 eigenvalues not converged
     c_bands:  1 eigenvalues not converged
     c_bands:  4 eigenvalues not converged
     c_bands:  3 eigenvalues not converged
     c_bands:  4 eigenvalues not converged
     c_bands:  1 eigenvalues not converged
     c_bands:  3 eigenvalues not converged
     c_bands:  3 eigenvalues not converged
     c_bands:  4 eigenvalues not converged
     c_bands:  3 eigenvalues not converged
     c_bands:  3 eigenvalues not converged
     c_bands:  3 eigenvalues not converged
     c_bands:  3 eigenvalues not converged
     c_bands:  2 eigenvalues not converged
     c_bands:  1 eigenvalues not converged
     c_bands:  2 eigenvalues not converged
     c_bands:  2 eigenvalues not converged
     c_bands:  3 eigenvalues not converged
     c_bands:  5 eigenvalues not converged
     c_bands:  2 eigenvalues not converged
     c_bands:  2 eigenvalues not converged
     c_bands:  3 eigenvalues not converged
     c_bands:  4 eigenvalues not converged
     c_bands:  4 eigenvalues not converged
     c_bands:  4 eigenvalues not converged
     c_bands:  5 eigenvalues not converged
     ethr =  1.00E-02,  avg # of iterations = 11.9

     total cpu time spent up to now is       79.8 secs

     total energy              =    -910.31942029 Ry
     Harris-Foulkes estimate   =   -1344.66989714 Ry
     estimated scf accuracy    <     787.41272973 Ry

     iteration #  3     ecut=    40.00 Ry     beta=0.70
     CG style diagonalization
     c_bands:  1 eigenvalues not converged
     c_bands:  1 eigenvalues not converged
     c_bands:  1 eigenvalues not converged
     c_bands:  1 eigenvalues not converged
     c_bands:  1 eigenvalues not converged
     c_bands:  1 eigenvalues not converged
     c_bands:  1 eigenvalues not converged
     c_bands:  1 eigenvalues not converged
     ethr =  1.00E-02,  avg # of iterations = 10.6

     total cpu time spent up to now is      108.3 secs

     total energy              =    -971.98750595 Ry
     Harris-Foulkes estimate   =    -991.49547838 Ry
     estimated scf accuracy    <      43.56868380 Ry

     iteration #  4     ecut=    40.00 Ry     beta=0.70
     CG style diagonalization
     ethr =  1.00E-02,  avg # of iterations =  4.0

     total cpu time spent up to now is      119.3 secs

     total energy              =    -976.33188432 Ry
     Harris-Foulkes estimate   =    -977.74031237 Ry
     estimated scf accuracy    <       2.42796599 Ry

     iteration #  5     ecut=    40.00 Ry     beta=0.70
     CG style diagonalization
     ethr =  2.17E-03,  avg # of iterations =  4.3

     total cpu time spent up to now is      131.0 secs

     total energy              =    -977.19033855 Ry
     Harris-Foulkes estimate   =    -977.20424149 Ry
     estimated scf accuracy    <       0.03807744 Ry

     iteration #  6     ecut=    40.00 Ry     beta=0.70
     CG style diagonalization
     c_bands:  3 eigenvalues not converged
     c_bands:  1 eigenvalues not converged
     c_bands:  1 eigenvalues not converged
     c_bands:  1 eigenvalues not converged
     c_bands:  1 eigenvalues not converged
     c_bands:  1 eigenvalues not converged
     c_bands:  3 eigenvalues not converged
     c_bands:  1 eigenvalues not converged
     c_bands:  1 eigenvalues not converged
     c_bands:  2 eigenvalues not converged
     c_bands:  3 eigenvalues not converged
     c_bands:  1 eigenvalues not converged
     c_bands:  1 eigenvalues not converged
     c_bands:  2 eigenvalues not converged
     c_bands:  2 eigenvalues not converged
     c_bands:  2 eigenvalues not converged
     c_bands:  1 eigenvalues not converged
     c_bands:  3 eigenvalues not converged
     c_bands:  1 eigenvalues not converged
     c_bands:  2 eigenvalues not converged
     c_bands:  2 eigenvalues not converged
     c_bands:  1 eigenvalues not converged
     c_bands:  1 eigenvalues not converged
     c_bands:  1 eigenvalues not converged
     c_bands:  1 eigenvalues not converged
     c_bands:  1 eigenvalues not converged
     c_bands:  1 eigenvalues not converged
     c_bands:  2 eigenvalues not converged
     c_bands:  1 eigenvalues not converged
     c_bands:  2 eigenvalues not converged
     c_bands:  2 eigenvalues not converged
     c_bands:  2 eigenvalues not converged
     c_bands:  1 eigenvalues not converged
     c_bands:  2 eigenvalues not converged
     c_bands:  2 eigenvalues not converged
     ethr =  3.40E-05,  avg # of iterations =  6.4

     total cpu time spent up to now is      148.4 secs

     total energy              =    -977.23174247 Ry
     Harris-Foulkes estimate   =    -977.25568785 Ry
     estimated scf accuracy    <       0.03882626 Ry

     iteration #  7     ecut=    40.00 Ry     beta=0.70
     CG style diagonalization
     c_bands:  1 eigenvalues not converged
     ethr =  3.40E-05,  avg # of iterations =  3.6

     total cpu time spent up to now is      158.2 secs

     total energy              =    -977.24208875 Ry
     Harris-Foulkes estimate   =    -977.24230276 Ry
     estimated scf accuracy    <       0.00085654 Ry

     iteration #  8     ecut=    40.00 Ry     beta=0.70
     CG style diagonalization
     c_bands:  1 eigenvalues not converged
     c_bands:  2 eigenvalues not converged
     c_bands:  1 eigenvalues not converged
     c_bands:  1 eigenvalues not converged
     c_bands:  1 eigenvalues not converged
     c_bands:  1 eigenvalues not converged
     c_bands:  1 eigenvalues not converged
     c_bands:  1 eigenvalues not converged
     c_bands:  1 eigenvalues not converged
     c_bands:  1 eigenvalues not converged
     c_bands:  1 eigenvalues not converged
     c_bands:  1 eigenvalues not converged
     c_bands:  1 eigenvalues not converged
     c_bands:  1 eigenvalues not converged
     c_bands:  2 eigenvalues not converged
     c_bands:  1 eigenvalues not converged
     c_bands:  1 eigenvalues not converged
     c_bands:  2 eigenvalues not converged
     c_bands:  1 eigenvalues not converged
     c_bands:  1 eigenvalues not converged
     c_bands:  1 eigenvalues not converged
     c_bands:  1 eigenvalues not converged
     c_bands:  1 eigenvalues not converged
     c_bands:  1 eigenvalues not converged
     ethr =  7.65E-07,  avg # of iterations =  5.5

     total cpu time spent up to now is      173.0 secs

     total energy              =    -977.24216584 Ry
     Harris-Foulkes estimate   =    -977.24277855 Ry
     estimated scf accuracy    <       0.00128251 Ry

     iteration #  9     ecut=    40.00 Ry     beta=0.70
     CG style diagonalization
     c_bands:  1 eigenvalues not converged
     c_bands:  1 eigenvalues not converged
     c_bands:  1 eigenvalues not converged
     c_bands:  1 eigenvalues not converged
     c_bands:  1 eigenvalues not converged
     ethr =  7.65E-07,  avg # of iterations =  3.5

     total cpu time spent up to now is      182.2 secs

     End of self-consistent calculation

          k = 0.0000 0.0000 0.0000 (  2601 PWs)   bands (ev):

   -43.7638 -43.7418 -11.1357 -11.1357 -11.1357 -11.0709 -11.0709 -11.0709
    -0.7072   1.5518   1.5518   5.2092   5.2092   5.2092  13.4126  13.4126
    14.9128  16.7422  16.7422  16.7422  19.2602  19.2602  19.2602  21.8854
    21.8854  21.8854  22.0179  22.0179  22.0179  28.7748  28.7748  28.7748
    29.0901  29.0901  30.1929  30.1929  31.1161  31.1161  31.1161  32.1158
    32.1158  32.1158  33.6010  33.9190  33.9190  33.9190  34.0317  35.3186
    38.3060  38.3060  38.3060  40.3567  40.3567  42.0262  42.7138  42.7138
    42.7138  42.9043  42.9043  45.0111  45.0112  45.0113  46.0719  46.0720
    46.0722  47.8208  48.7909

          k = 0.0000 0.0000 0.1429 (  2657 PWs)   bands (ev):

   -43.7798 -43.7657 -11.1416 -11.1353 -11.1353 -11.1125 -11.1087 -11.1087
    -0.5851   1.4688   1.6629   4.8557   5.1949   5.1949  13.4703  13.6366
    15.1529  16.6024  16.6024  17.1162  19.3627  19.4837  19.4837  21.3026
    21.8279  21.9926  21.9926  22.0635  22.0635  27.3688  28.6571  28.6571
    29.0924  29.6642  29.8342  30.1371  30.7880  30.7880  31.1590  31.7232
    31.7232  32.0599  32.9524  34.1099  34.4074  34.4074  35.7508  36.0619
    37.1609  38.6327  38.6327  40.1179  40.8816  42.0164  42.0164  42.5635
    42.5950  42.7338  42.8489  45.2569  45.2570  46.4110  46.4378  46.9021
    46.9023  47.8402  47.8407

          k = 0.0000 0.0000 0.2857 (  2677 PWs)   bands (ev):

   -43.7838 -43.7757 -11.1698 -11.1369 -11.1334 -11.1334 -11.1173 -11.1173
    -0.2433   1.2097   1.9887   4.0667   5.1674   5.1674  13.6027  13.7155
    16.3536  16.3536  16.4504  17.9267  19.6666  19.9093  19.9093  20.1058
    21.3456  21.9392  21.9392  22.5587  22.5587  24.7818  28.3084  28.3084
    28.9883  29.5901  29.9172  30.1143  30.1143  30.1456  31.0601  31.0601
    31.2856  31.9099  32.6732  34.6301  35.4256  35.4256  36.1381  36.9442
    38.8418  39.0324  39.0324  39.5675  41.2269  41.5726  41.5726  41.9987
    42.4155  42.4416  45.3697  45.3698  45.4967  45.7796  45.7796  46.3780
    47.1349  47.7047  47.6897

          k = 0.0000 0.0000 0.4286 (  2658 PWs)   bands (ev):

   -43.7734 -43.7729 -11.1547 -11.1504 -11.1283 -11.1283 -11.1139 -11.1139
     0.2515   0.7794   2.5157   3.2248   5.1458   5.1458  13.7017  13.7123
    16.1923  16.1923  17.9794  18.9746  19.3977  20.1428  20.1969  20.1969
    20.7347  21.8827  21.8827  21.9388  23.1129  23.1129  27.8656  27.8656
    29.1324  29.5686  29.5686  29.5766  29.7983  30.1147  30.7219  30.7219
    31.4776  31.7006  32.7406  33.3321  36.3994  36.3994  37.6999  38.6599
    38.7415  38.7415  38.8473  40.5491  41.4769  41.6329  41.9762  41.9762
    42.7061  42.7888  44.6012  44.8003  44.8003  45.5137  45.5610  45.5611
    46.4692  46.8105  47.7549

          k = 0.0000 0.1667 0.0000 (  2653 PWs)   bands (ev):

   -43.7775 -43.7657 -11.1429 -11.1344 -11.1344 -11.1116 -11.1076 -11.1076
    -0.5419   1.4386   1.7027   4.7425   5.1910   5.1910  13.4897  13.6725
    15.2890  16.5618  16.5618  17.2321  19.4000  19.5520  19.5520  21.1217
    21.7639  21.9864  21.9864  22.1255  22.1255  26.9884  28.6151  28.6151
    29.0862  29.7522  29.7642  30.1161  30.6890  30.6890  31.1747  31.6078
    31.6078  32.0408  32.8725  34.2847  34.5581  34.5581  35.9025  36.4908
    36.8524  38.7257  38.7257  40.0407  40.9617  41.8822  41.8822  42.5425
    42.5569  42.6859  43.1450  45.2903  45.2903  46.4948  46.7806  46.8010
    46.8011  48.0331  48.0332

          k = 0.0000 0.1667 0.1429 (  2662 PWs)   bands (ev):

   -43.7831 -43.7669 -11.1454 -11.1395 -11.1313 -11.1299 -11.1146 -11.1067
    -0.4231   1.4779   1.6972   4.7075   4.8579   5.1786  13.5835  14.0418
    15.3356  16.4928  16.9176  17.1386  19.1748  19.5703  20.0349  21.3709
    21.4197  21.6491  21.9294  22.2206  22.2550  26.9346  27.2860  28.5083
    29.3374  29.6808  29.8913  30.0283  30.5551  30.6876  30.8814  31.1744
    31.4464  31.8035  32.7081  34.6940  34.8951  35.1525  36.4220  37.1733
    37.2783  37.8299  38.9724  40.1961  41.2265  41.5049  41.5851  42.4103
    42.4941  43.0830  43.3785  45.3980  45.9314  46.1828  46.4835  46.4985
    47.1269  47.8529  47.9438

          k = 0.0000 0.1667 0.2857 (  2666 PWs)   bands (ev):

   -43.7796 -43.7736 -11.1614 -11.1485 -11.1373 -11.1317 -11.1146 -11.1083
    -0.0867   1.3089   1.9471   4.0245   4.7173   5.1511  13.6381  14.4669
    16.2678  16.3492  16.9762  17.7192  19.2105  19.4480  20.3675  20.7284
    21.1905  21.8119  22.0626  22.3649  22.6604  24.7605  26.7722  28.1840
    29.1524  29.5658  29.7972  30.0343  30.1066  30.3867  30.5968  30.8446
    30.9374  31.5911  32.7127  35.1789  35.6992  36.0680  36.5313  37.7043
    38.3444  39.1872  39.2919  39.8187  40.7521  41.0181  42.2052  42.3292
    42.4539  43.3312  44.7217  44.8053  44.8575  45.4669  45.9860  46.2197
    46.6375  48.5343  48.7278

          k = 0.0000 0.1667 0.4286 (  2658 PWs)   bands (ev):

   -43.7756 -43.7715 -11.1652 -11.1636 -11.1233 -11.1225 -11.1193 -11.1108
     0.3947   0.9099   2.4582   3.1804   4.6974   5.1290  13.6800  14.5749
    16.2446  16.5708  17.9809  18.6314  19.2758  19.4706  20.0494  20.3897
    21.3998  21.6963  21.9022  22.3794  22.8041  23.1700  26.6022  27.7495
    28.8523  29.3154  29.5407  29.7115  29.9852  30.2410  30.4698  30.6095
    30.9884  31.4458  33.0991  33.9613  36.5913  36.6274  37.8646  38.5807
    38.8300  39.3407  39.4475  40.6314  40.9148  41.6439  42.2159  42.5418
    42.5911  42.8011  43.7496  44.0246  44.7150  44.9562  45.5078  45.8608
    47.0334  48.0530  48.3944

          k = 0.0000 0.3333 0.0000 (  2677 PWs)   bands (ev):

   -43.7837 -43.7756 -11.1606 -11.1458 -11.1350 -11.1350 -11.1195 -11.1195
    -0.0902   1.0830   2.1427   3.7780   5.1587   5.1587  13.6448  13.7107
    16.2843  16.2843  17.0237  18.2859  19.7025  19.8083  20.0316  20.0316
    21.1480  21.9178  21.9178  22.7634  22.7634  23.8338  28.1523  28.1523
    28.9812  29.6314  29.8234  29.8882  29.8882  30.1889  30.9047  30.9047
    31.3443  31.8448  32.6597  34.1763  35.7845  35.7845  36.6104  37.4694
    39.0025  39.0025  39.3447  39.8400  41.3531  41.6105  41.6517  41.6517
    42.3786  42.4229  45.2864  45.2864  45.5502  45.5502  45.9436  46.6030
    46.7754  47.2552  47.3526

          k = 0.0000 0.3333 0.1429 (  2660 PWs)   bands (ev):

   -43.7761 -43.7726 -11.1605 -11.1524 -11.1339 -11.1294 -11.1126 -11.1050
     0.0232   1.1669   2.1068   3.7479   4.8158   5.1462  13.6564  14.3082
    16.3002  16.4707  17.1669  18.0805  19.3480  19.3594  20.3462  20.4808
    21.1454  21.8137  22.2932  22.3614  22.8224  23.8633  27.0587  28.0662
    29.1201  29.4064  29.7583  29.8775  29.9549  30.3462  30.6265  30.8162
    31.0157  31.5984  32.7611  34.6536  35.9547  36.1445  36.8469  38.0273
    38.7086  39.0805  39.6433  40.0342  40.9098  41.0055  42.0361  42.3157
    42.3633  43.0828  44.6477  44.6827  44.8580  45.6179  45.9832  46.0470
    46.5241  48.1009  48.3120

          k = 0.0000 0.3333 0.2857 (  2658 PWs)   bands (ev):

   -43.7779 -43.7704 -11.1757 -11.1693 -11.1263 -11.1179 -11.1179 -11.1078
     0.3363   1.3420   2.0448   3.5782   4.1581   5.1181  13.6670  15.7636
    16.3348  16.9492  17.5117  17.6653  19.0674  19.1845  19.8774  20.6222
    21.6949  21.8417  21.9871  22.7522  22.9931  23.7411  24.6572  27.8157
    29.1464  29.2514  29.5874  29.7205  29.9120  30.1508  30.2948  30.5635
    30.6909  31.3137  33.2127  35.6989  36.4923  36.6678  37.5741  38.0751
    39.0130  39.0558  39.2447  40.5433  40.7382  40.7522  42.2814  42.7882
    42.8557  43.0970  43.8766  44.3728  44.4027  44.9205  46.5850  47.1809
    47.2248  48.3707  48.6475

          k = 0.0000 0.3333 0.4286 (  2654 PWs)   bands (ev):

   -43.7733 -43.7713 -11.1801 -11.1753 -11.1267 -11.1248 -11.1128 -11.1067
     0.7450   1.2731   2.2797   2.9676   3.9277   5.0962  13.7157  16.3609
    16.6232  17.2612  17.7360  18.3262  19.0794  19.4017  19.4068  20.3690
    21.3509  21.7470  22.2466  22.6403  22.9935  23.2963  23.6924  27.4675
    28.6389  29.1308  29.1955  29.6586  29.9387  30.1062  30.2985  30.3321
    30.6521  31.2240  34.1807  35.4305  37.1223  37.2742  37.7145  38.4977
    38.5069  39.0956  39.9566  40.5146  40.7479  40.7563  41.7860  42.4663
    42.4864  43.5793  43.6937  44.4694  45.1297  45.8030  46.1983  47.5550
    48.0315  48.3362  48.4466

          k = 0.0000-0.5000 0.0000 (  2666 PWs)   bands (ev):

   -43.7756 -43.7756 -11.1571 -11.1571 -11.1249 -11.1249 -11.1221 -11.1221
     0.5200   0.5200   2.8485   2.8485   5.1426   5.1426  13.7144  13.7144
    16.1709  16.1709  18.4876  18.4876  20.2359  20.2359  20.4291  20.4291
    20.5908  20.5908  21.8730  21.8730  23.2112  23.2112  27.7781  27.7781
    29.3493  29.3493  29.4933  29.4933  29.9609  29.9609  30.6826  30.6826
    31.5878  31.5878  32.9419  32.9419  36.5878  36.5878  38.3566  38.3566
    38.6144  38.6144  39.6128  39.6128  41.7138  41.7138  42.1016  42.1016
    43.4923  43.4922  44.0489  44.0489  44.6322  44.6322  45.5932  45.5933
    46.5473  46.5478  47.7434

          k = 0.0000-0.5000 0.1429 (  2666 PWs)   bands (ev):

   -43.7758 -43.7758 -11.1636 -11.1636 -11.1249 -11.1237 -11.1222 -11.1214
     0.5944   0.6488   2.7619   2.8598   4.8021   5.1300  13.6907  14.3675
    16.2148  16.4671  18.3277  18.4947  19.6514  19.9168  20.0378  20.4480
    20.9303  21.2675  21.7973  22.2721  22.9298  23.2514  26.8999  27.6902
    28.7848  29.4001  29.4736  29.6285  30.0282  30.1299  30.5113  30.5997
    31.1568  31.4544  33.2816  33.3751  36.5886  36.7745  38.4466  38.4486
    38.5318  39.2451  39.7908  40.1377  41.5002  41.7760  42.0547  42.5293
    42.8219  43.2048  43.5214  43.8816  44.3770  44.8524  45.3449  45.7717
    46.5831  47.7922  48.0099

          k = 0.0000-0.5000 0.2857 (  2658 PWs)   bands (ev):

   -43.7736 -43.7734 -11.1748 -11.1739 -11.1285 -11.1273 -11.1136 -11.1099
     0.7860   1.0238   2.5429   2.8068   4.1107   5.1017  13.7040  16.0270
    16.3244  17.0662  17.8887  18.5394  19.2300  19.4425  19.9748  20.1319
    20.9386  21.7463  22.2439  22.3588  22.8654  23.3481  24.5379  27.4769
    28.5618  29.2810  29.4206  29.7558  29.7837  30.2898  30.3330  30.3791
    30.4040  31.2557  34.2211  34.4913  37.2921  37.3889  37.7958  38.3155
    38.4364  39.9653  40.0696  40.1873  40.8371  41.0333  41.9624  42.3185
    42.6911  42.9334  43.5005  44.5281  45.0362  45.6337  45.8315  46.5448
    47.8135  47.9318  48.7305

          k = 0.0000-0.5000 0.4286 (  2662 PWs)   bands (ev):

   -43.7750 -43.7750 -11.1903 -11.1889 -11.1262 -11.1261 -11.1142 -11.1095
     0.9802   1.5642   2.3253   2.4454   3.6895   5.0800  13.7706  16.4277
    17.3810  17.4262  18.2447  18.7942  19.0313  19.0596  19.8447  20.3096
    20.5037  21.5965  21.8466  22.0812  23.2346  23.2770  23.4228  27.2267
    28.4397  28.5601  28.7093  29.9448  29.9775  29.9816  30.1773  30.6689
    30.6876  31.1782  35.6143  35.8137  36.7286  37.1899  38.0014  38.2216
    38.3451  39.3016  39.8550  39.9317  40.1525  40.6753  41.3611  41.6289
    43.8195  44.2996  44.5939  45.5539  45.7023  45.9607  46.4629  47.6224
    47.8447  47.9820  48.3319

          k = 0.2000 0.0000 0.0000 (  2661 PWs)   bands (ev):

   -43.7835 -43.7655 -11.1447 -11.1329 -11.1329 -11.1235 -11.1132 -11.1132
    -0.4722   1.3874   1.7683   4.5676   5.1848   5.1848  13.5198  13.7035
    15.5422  16.5019  16.5019  17.4076  19.4614  19.6529  19.6529  20.8487
    21.6615  21.9752  21.9752  22.2283  22.2283  26.4116  28.5442  28.5442
    29.0674  29.6598  29.8868  30.0841  30.5383  30.5383  31.2005  31.4414
    31.4414  32.0097  32.7878  34.5393  34.7870  34.7870  36.1492  36.4332
    37.1192  38.8489  38.8489  39.9208  41.0467  41.7270  41.7270  42.4427
    42.5101  42.6144  43.6989  45.3267  45.3268  46.5167  46.5168  46.5583
    47.2154  48.1587  48.3592

          k = 0.2000 0.0000 0.1429 (  2667 PWs)   bands (ev):

   -43.7811 -43.7723 -11.1554 -11.1425 -11.1324 -11.1319 -11.1153 -11.1058
    -0.3538   1.4419   1.7497   4.5384   4.8444   5.1721  13.6003  14.1397
    15.5277  16.4533  16.8860  17.2937  19.1806  19.5814  20.1576  21.1521
    21.3234  21.7741  21.9081  22.2507  22.3413  26.3674  27.2476  28.4422
    29.2927  29.6460  29.8750  30.1287  30.4421  30.5455  30.8887  31.0059
    31.3098  31.7584  32.6790  34.9085  35.0791  35.3730  36.6914  36.8202
    37.7583  37.9906  39.0649  40.1116  41.0720  41.3599  41.7503  42.4014
    42.4289  43.1454  43.8214  45.2599  45.6829  46.0631  46.0894  46.6670
    46.9922  48.0491  48.3416

          k = 0.2000 0.0000 0.2857 (  2659 PWs)   bands (ev):

   -43.7765 -43.7723 -11.1642 -11.1512 -11.1323 -11.1301 -11.1112 -11.1048
    -0.0200   1.3418   1.9365   3.9985   4.5592   5.1447  13.6394  14.7661
    16.3138  16.3470  17.1176  17.6474  19.1479  19.3796  20.3207  20.8064
    21.3079  21.7747  21.9390  22.4633  22.7062  24.7368  26.2282  28.1302
    29.1455  29.5454  29.7992  30.0157  30.0949  30.3888  30.5047  30.6862
    30.8687  31.5086  32.7524  35.3749  35.8217  36.3097  36.6561  37.9918
    38.1429  39.2167  39.4601  39.7505  40.6693  40.9115  42.1986  42.5715
    42.7582  43.4613  44.2939  44.6448  44.6584  45.4684  45.7901  46.4218
    46.9670  48.4734  48.9193

          k = 0.2000 0.0000 0.4286 (  2660 PWs)   bands (ev):

   -43.7762 -43.7722 -11.1692 -11.1650 -11.1235 -11.1219 -11.1202 -11.1143
     0.4541   0.9661   2.4301   3.1600   4.5353   5.1227  13.6785  14.9231
    16.2653  16.7098  17.9645  18.5150  19.2886  19.3649  19.9106  20.4019
    21.6426  21.6509  21.8668  22.5201  22.6901  23.1928  26.0780  27.7029
    28.7954  29.3490  29.5177  29.7390  29.9701  30.2289  30.4220  30.5616
    30.7872  31.3850  33.2517  34.2144  36.7270  36.7589  37.8424  38.5750
    38.8134  39.5088  39.5242  40.7136  40.7220  41.5833  42.1619  42.3983
    42.7839  43.0522  43.3026  44.0595  44.5997  45.3431  45.6066  45.8108
    47.2798  48.1642  48.3109

          k = 0.2000 0.1667 0.0000 (  2672 PWs)   bands (ev):

   -43.7807 -43.7766 -11.1537 -11.1498 -11.1381 -11.1381 -11.1136 -11.1038
    -0.3119   1.4492   1.7543   4.5184   4.7450   5.1680  13.6071  14.2800
    15.5700  16.4374  16.9873  17.2688  19.1533  19.5595  20.2449  21.2120
    21.2669  21.6747  21.8835  22.2981  22.3837  26.3477  26.8801  28.4046
    29.2811  29.6477  29.8505  30.1941  30.4094  30.5379  30.8001  30.8727
    31.2508  31.7007  32.6621  35.0258  35.1774  35.5478  36.8692  36.8883
    37.8106  37.9876  39.1200  40.0803  40.9508  41.2617  41.9970  42.3848
    42.4172  43.2727  43.9094  45.1454  45.4990  45.7199  46.2762  46.5947
    47.2085  47.9943  48.2941

          k = 0.2000 0.1667 0.1429 (  2665 PWs)   bands (ev):

   -43.7805 -43.7721 -11.1512 -11.1452 -11.1439 -11.1358 -11.1114 -11.1084
    -0.1947   1.5486   1.6988   4.5089   4.7041   4.8313  14.1378  14.3504
    15.4505  16.8278  16.9845  17.2296  18.6712  20.1085  20.2311  20.7976
    21.4778  21.7788  21.9467  22.2225  22.3248  26.3076  26.8272  27.1701
    29.4800  29.6352  29.9424  30.1722  30.2685  30.4320  30.5109  30.5679
    31.2090  31.4511  32.6860  35.3941  35.6904  35.7839  37.0466  37.3367
    38.0236  38.4211  38.7436  40.5667  40.6946  41.2448  41.8780  41.9202
    43.1247  43.3569  44.1545  44.6761  44.8038  46.1524  46.3069  47.3668
    47.8142  47.9377  48.1414

          k = 0.2000 0.1667 0.2857 (  2655 PWs)   bands (ev):

   -43.7786 -43.7667 -11.1587 -11.1568 -11.1422 -11.1166 -11.1147 -11.1106
     0.1339   1.4658   1.8878   3.9821   4.5115   4.6852  14.4448  14.8213
    16.0677  16.9165  17.2179  17.5996  18.3198  20.0926  20.2021  20.5039
    21.2825  21.9547  22.1423  22.4151  22.5919  24.7199  26.1649  26.6657
    29.3476  29.4173  29.7187  29.9124  30.0067  30.1358  30.3864  30.4848
    30.8935  31.3207  32.8347  35.7888  36.4247  36.5845  37.0865  38.1540
    38.5320  38.8353  39.8018  40.2111  40.4996  41.3200  41.8275  42.6666
    43.0425  43.3089  44.0706  44.2969  45.3072  45.5786  46.0465  46.7840
    47.0595  47.7440  48.0520

          k = 0.2000 0.1667 0.4286 (  2655 PWs)   bands (ev):

   -43.7732 -43.7711 -11.1695 -11.1671 -11.1341 -11.1278 -11.1130 -11.1059
     0.6011   1.0892   2.4064   3.1253   4.4965   4.6570  14.5411  14.8949
    16.6571  16.8198  17.8889  18.1615  18.8075  19.7184  19.8945  20.7082
    20.9563  21.6255  22.4104  22.5670  22.7717  22.9155  26.0165  26.4966
    28.7793  29.1242  29.6086  29.7930  29.8659  29.9587  30.2396  30.3618
    30.9879  31.2453  33.4313  34.5536  37.0640  37.1068  38.0214  38.9476
    39.2767  39.4157  40.1287  40.4242  40.7542  41.4648  41.9574  42.6453
    42.8498  43.3622  43.6673  44.3486  44.4942  44.7711  45.4475  45.8472
    46.9273  47.4752  48.0182

          k = 0.2000 0.3333 0.0000 (  2656 PWs)   bands (ev):

   -43.7771 -43.7694 -11.1635 -11.1589 -11.1268 -11.1254 -11.1156 -11.1055
     0.1277   1.2378   2.0757   3.7118   4.5476   5.1359  13.6536  14.8431
    16.3132  16.6245  17.2946  17.9133  19.2001  19.2622  20.1975  20.6141
    21.4366  21.7495  22.1166  22.4961  22.8767  23.8413  26.1706  27.9840
    29.1511  29.3067  29.7845  29.8553  29.9594  30.3207  30.5221  30.7079
    30.7460  31.4585  32.8739  35.0550  36.1282  36.4621  37.0064  38.4725
    38.5241  39.1141  39.4637  40.2331  40.7153  40.8515  42.1618  42.6450
    42.8733  43.1968  43.8821  44.4598  44.5788  45.5058  46.0559  46.4449
    46.5298  48.4315  48.8175

          k = 0.2000 0.3333 0.1429 (  2657 PWs)   bands (ev):

   -43.7778 -43.7687 -11.1632 -11.1628 -11.1408 -11.1178 -11.1125 -11.1102
     0.2397   1.3277   2.0479   3.6959   4.5165   4.7830  14.2813  14.8498
    16.3888  16.8185  17.3799  17.8692  18.3900  19.9692  20.0220  20.6034
    21.1377  22.0797  22.2699  22.4832  22.6435  23.8714  26.1248  26.9385
    29.1670  29.3722  29.6404  29.7631  29.9982  30.2077  30.2862  30.4957
    30.8643  31.3494  32.9497  35.3639  36.5358  36.7328  37.2168  38.4971
    38.8414  39.1718  39.7049  40.2334  40.7883  41.1297  41.8065  42.7644
    43.0010  43.3583  43.7187  44.2270  45.0204  45.4498  46.2353  46.3494
    46.7263  47.6686  48.0302

          k = 0.2000 0.3333 0.2857 (  2656 PWs)   bands (ev):

   -43.7764 -43.7687 -11.1711 -11.1638 -11.1433 -11.1221 -11.1142 -11.1129
     0.5502   1.5307   1.9945   3.5994   4.0400   4.4699  14.8652  15.8418
    16.4809  17.3007  17.5211  17.6383  18.0432  19.6966  20.1440  20.4943
    21.2838  21.7535  22.2026  22.7498  22.9075  23.7790  24.5852  25.9806
    28.9541  29.1615  29.5225  29.6353  29.7626  29.9937  30.3320  30.6470
    30.7406  31.1813  33.2691  36.0946  36.9501  37.4475  37.6024  38.3397
    39.2837  39.5540  39.6636  39.8737  41.4309  41.5293  42.0804  42.5508
    42.8862  43.5781  44.0114  44.2043  44.7287  45.1201  46.4777  46.6135
    46.9602  47.0649  47.9561

          k = 0.2000 0.3333 0.4286 (  2643 PWs)   bands (ev):

   -43.7686 -43.7672 -11.1734 -11.1702 -11.1340 -11.1215 -11.1116 -11.1095
     0.9686   1.4339   2.2937   2.9905   3.7788   4.4377  14.9394  16.5027
    17.0172  17.2413  17.4522  18.1175  18.8465  19.5148  19.9571  20.5060
    21.1650  21.3025  22.0136  22.6817  22.8915  23.0460  23.6634  25.8366
    28.7298  28.9100  29.3446  29.4674  29.9894  30.0332  30.1833  30.4909
    30.7311  31.1942  34.1652  35.5559  37.2011  37.8385  37.8678  38.6152
    39.5017  39.6655  40.0714  40.5653  41.2360  41.7740  41.9013  42.7042
    42.7726  43.1754  43.9306  44.1832  44.2535  45.3779  45.7049  46.3677
    46.9488  47.5915  47.8900

          k = 0.2000-0.5000 0.0000 (  2658 PWs)   bands (ev):

   -43.7732 -43.7731 -11.1710 -11.1707 -11.1219 -11.1200 -11.1159 -11.1129
     0.6612   0.7717   2.6851   2.8580   4.5329   5.1197  13.6860  14.9412
    16.2536  16.7025  18.1689  18.5014  19.4551  19.7907  19.8752  20.3303
    21.0011  21.6941  21.7585  22.5220  22.6849  23.2872  26.0536  27.6155
    28.6618  29.4387  29.4836  29.6712  29.9841  30.2006  30.3646  30.5233
    30.8071  31.3650  33.5863  33.7592  36.8283  36.9472  38.3664  38.3821
    38.4540  39.7134  39.8638  40.5776  41.2263  41.2843  41.9703  42.7185
    42.8945  43.0187  43.0829  43.9142  44.6455  45.1178  45.3853  45.9647
    47.1259  47.6581  48.6292

          k = 0.2000-0.5000 0.1429 (  2658 PWs)   bands (ev):

   -43.7732 -43.7730 -11.1682 -11.1681 -11.1305 -11.1295 -11.1137 -11.1126
     0.7883   0.8439   2.7116   2.7908   4.5033   4.7666  14.3350  14.9071
    16.5883  16.7707  18.0495  18.2099  19.4104  19.5073  20.2399  20.4409
    20.9694  21.0599  22.3893  22.5643  22.7462  22.9972  26.0102  26.7840
    28.7667  28.8983  29.7535  29.7552  29.9119  30.0841  30.2106  30.2189
    31.0106  31.2488  33.8197  33.9014  37.0790  37.0910  38.5043  38.6337
    39.2387  39.6421  39.9087  40.3929  41.3670  41.6557  41.8011  42.2656
    42.7240  43.3760  43.8531  44.2091  44.4224  44.5505  45.2680  45.6525
    47.2692  47.6240  47.8271

          k = 0.2000-0.5000 0.2857 (  2648 PWs)   bands (ev):

   -43.7698 -43.7695 -11.1717 -11.1717 -11.1320 -11.1319 -11.1089 -11.1083
     1.0326   1.1578   2.6055   2.7301   4.0093   4.4485  14.9260  15.9496
    16.9921  17.0996  17.6154  18.0351  19.4152  19.5305  20.1078  20.3549
    20.8855  21.0280  22.1847  22.6499  22.8425  22.9755  24.4787  25.8713
    28.8850  28.8875  29.2110  29.4437  30.0020  30.0733  30.3064  30.3915
    30.7268  31.1836  34.4330  34.5546  37.6730  37.7007  38.0255  38.5464
    39.6248  39.7402  40.2288  40.8366  41.0058  41.2922  42.0348  42.3206
    43.0540  43.1834  44.1074  44.3463  44.3546  44.9297  45.6308  46.2943
    46.5448  46.6164  48.1546

          k = 0.2000-0.5000 0.4286 (  2646 PWs)   bands (ev):

   -43.7688 -43.7686 -11.1748 -11.1745 -11.1318 -11.1317 -11.1144 -11.1116
     1.2285   1.6960   2.4037   2.5062   3.4555   4.4152  15.0072  16.9323
    17.0103  17.2177  18.3139  18.7587  19.3740  19.4067  20.0273  20.1938
    20.5138  21.3718  21.5778  21.9280  22.7698  22.8139  23.1817  25.7303
    28.7565  28.9743  29.1985  29.2219  29.5596  30.2033  30.2307  30.7510
    30.7653  31.1705  35.5002  35.7251  36.8583  36.9879  37.5457  39.4704
    39.5311  39.7121  40.0467  40.9756  41.4219  41.7435  41.9469  41.9669
    42.5638  42.7964  43.8828  44.0620  45.5712  45.6428  46.3258  46.3881
    46.9549  47.1037  48.2046

          k = 0.4000 0.0000 0.0000 (  2657 PWs)   bands (ev):

   -43.7781 -43.7674 -11.1506 -11.1482 -11.1244 -11.1244 -11.1194 -11.1194
     0.1460   0.8770   2.3948   3.3858   5.1490   5.1490  13.6893  13.7105
    16.2128  16.2128  17.7363  18.9964  19.1815  20.0361  20.1601  20.1601
    20.8595  21.8914  21.8914  22.5006  23.0262  23.0262  27.9402  27.9402
    29.0653  29.6409  29.6409  29.6588  29.7397  30.1575  30.7606  30.7606
    31.4365  31.7454  32.6992  33.5496  36.2434  36.2434  37.3890  38.2902
    38.8303  38.8303  39.0117  40.8994  41.1157  41.5596  41.8769  41.8769
    42.4688  42.6079  44.9370  44.9371  45.0345  45.5394  45.5395  46.0897
    46.5109  46.9549  47.7846

          k = 0.4000 0.0000 0.1429 (  2659 PWs)   bands (ev):

   -43.7770 -43.7710 -11.1613 -11.1573 -11.1269 -11.1240 -11.1182 -11.1133
     0.2545   0.9694   2.3553   3.3531   4.8073   5.1360  13.6768  14.3447
    16.2469  16.4881  17.7773  18.6285  19.1426  19.4906  20.2146  20.3813
    21.2066  21.7821  22.2838  22.2913  22.9114  23.0713  26.9665  27.8539
    29.0031  29.2578  29.6237  29.7203  29.9522  30.2726  30.5566  30.6772
    31.0895  31.5215  32.9162  34.0344  36.4026  36.4176  37.5670  38.6034
    38.8454  39.0035  39.4244  40.7641  40.8666  41.4142  42.1237  42.4066
    42.5243  42.7435  44.2363  44.2590  44.8066  45.0249  45.6043  45.8420
    47.1089  48.0020  48.1322

          k = 0.4000 0.0000 0.2857 (  2657 PWs)   bands (ev):

   -43.7769 -43.7703 -11.1735 -11.1721 -11.1271 -11.1242 -11.1168 -11.1078
     0.5470   1.2190   2.2350   3.2167   4.1224   5.1082  13.6880  15.9456
    16.3286  17.0855  17.7763  18.1040  19.1197  19.2245  19.6519  20.4447
    21.6545  21.8099  22.2275  22.6624  22.8278  23.1859  24.5822  27.6273
    28.8069  29.3885  29.4485  29.5311  29.9066  30.2012  30.2853  30.4483
    30.6159  31.2746  33.6027  35.2243  36.8910  36.9843  37.7773  38.6962
    38.7098  38.8286  39.7100  40.7272  40.8699  40.9826  42.1313  42.4815
    42.4860  43.3329  43.3519  44.4244  44.7198  45.2789  46.2900  46.9675
    47.6677  48.2009  48.8823

          k = 0.4000 0.0000 0.4286 (  2657 PWs)   bands (ev):

   -43.7747 -43.7719 -11.1901 -11.1807 -11.1279 -11.1259 -11.1111 -11.1050
     0.8821   1.4412   2.2339   2.7551   3.7622   5.0861  13.7470  16.4013
    17.2643  17.4314  17.8424  18.4222  19.0204  19.2139  19.4907  20.4006
    21.0123  21.7831  22.0590  22.5941  23.0486  23.1443  23.3450  27.3363
    28.5696  28.7358  28.9145  29.8331  29.9869  29.9882  30.2370  30.4332
    30.7453  31.1918  34.7898  35.9325  37.0244  37.2310  37.6064  38.4144
    38.4192  39.4373  39.8739  40.0736  40.2635  40.7248  41.6019  41.9807
    43.1014  44.0247  44.5200  44.5220  45.4584  46.2338  46.4453  47.4423
    47.8720  48.4248  48.8111

          k = 0.4000 0.1667 0.0000 (  2659 PWs)   bands (ev):

   -43.7757 -43.7723 -11.1657 -11.1605 -11.1265 -11.1249 -11.1177 -11.1093
     0.2924   1.0020   2.3401   3.3408   4.6998   5.1319  13.6737  14.5619
    16.2583  16.5764  17.7882  18.5231  19.1503  19.4107  20.1265  20.4147
    21.3616  21.7541  22.2227  22.3815  22.8750  23.0869  26.6282  27.8244
    28.9656  29.2587  29.6144  29.7366  29.9671  30.2887  30.4912  30.6472
    30.9646  31.4695  32.9902  34.1982  36.4621  36.5207  37.5800  38.6518
    38.8638  39.1020  39.4671  40.7191  40.7569  41.3902  42.1670  42.5476
    42.6664  42.7229  43.9014  44.2015  44.6987  45.1784  45.6653  45.8108
    47.2681  48.0027  48.2690

          k = 0.4000 0.1667 0.1429 (  2662 PWs)   bands (ev):

   -43.7762 -43.7733 -11.1658 -11.1656 -11.1385 -11.1248 -11.1192 -11.1068
     0.4017   1.0927   2.3147   3.3145   4.6759   4.7818  14.3108  14.5470
    16.5146  16.6664  17.7981  18.4032  18.5529  19.7679  19.9676  20.6967
    20.9588  22.0047  22.3445  22.4488  22.7483  23.0367  26.5742  26.8839
    28.9203  29.2142  29.4712  29.7920  30.1342  30.1913  30.2214  30.3728
    31.0151  31.3378  33.1328  34.5265  36.7314  36.7677  37.7865  38.7775
    39.0735  39.3364  40.0643  40.3076  40.5680  41.6800  41.8391  42.5678
    42.9567  43.1322  43.5742  44.3421  44.6997  44.8453  45.5137  46.0693
    47.1806  47.5231  48.1217

          k = 0.4000 0.1667 0.2857 (  2650 PWs)   bands (ev):

   -43.7709 -43.7702 -11.1704 -11.1690 -11.1373 -11.1218 -11.1133 -11.1075
     0.6974   1.3395   2.2261   3.2168   4.0445   4.6334  14.5546  15.9133
    16.7315  17.1640  17.6476  17.9488  18.5173  19.6153  19.8930  20.5588
    21.1949  21.7001  22.2827  22.7560  22.8726  23.0230  24.5436  26.4127
    28.7799  29.1509  29.5122  29.6866  29.7514  29.8840  30.2473  30.5139
    30.7080  31.2440  33.6291  35.4152  37.1475  37.4848  37.9581  38.5598
    39.2002  39.6306  39.8955  40.1720  41.2265  41.5414  41.9587  42.5733
    42.9140  43.2760  43.9796  44.1243  44.4827  44.9982  45.8202  46.6775
    46.9601  47.6931  47.7765

          k = 0.4000 0.1667 0.4286 (  2652 PWs)   bands (ev):

   -43.7713 -43.7707 -11.1824 -11.1740 -11.1335 -11.1288 -11.1133 -11.1099
     1.0470   1.5456   2.2612   2.8036   3.6123   4.6052  14.6234  16.7838
    17.1452  17.2697  17.7517  18.4403  18.9217  19.3314  19.8768  20.4454
    20.9895  21.4510  21.9096  22.4535  22.9152  22.9704  23.1965  26.2479
    28.6341  28.8439  29.4328  29.4918  29.6417  30.0501  30.1020  30.4994
    30.7910  31.2176  34.6860  36.0018  36.8190  37.3074  37.9639  39.0775
    39.2015  39.4509  39.7190  40.5330  41.5567  41.7235  41.8562  42.1740
    42.7220  43.1285  43.8252  44.2003  44.7731  45.7878  46.1289  46.7610
    46.9949  47.8654  48.1512

          k = 0.4000 0.3333 0.0000 (  2652 PWs)   bands (ev):

   -43.7736 -43.7701 -11.1772 -11.1738 -11.1275 -11.1218 -11.1127 -11.1065
     0.6665   1.3151   2.1974   3.1060   3.9424   5.0993  13.7071  16.3575
    16.5454  17.2890  17.7120  18.0684  19.0563  19.2754  19.4822  20.4210
    21.5381  21.7319  22.5645  22.5664  22.9648  23.2318  23.7221  27.5303
    28.7475  29.1646  29.2802  29.5616  29.9483  30.1148  30.2523  30.3638
    30.7037  31.2323  33.9613  35.6438  36.9763  37.1145  37.7223  38.5423
    38.6475  38.8382  39.8815  40.6284  40.7675  40.7687  41.9396  42.4340
    42.5198  43.5361  43.5943  44.4268  44.8730  45.7305  46.5323  47.5851
    47.7878  48.2585  48.4868

          k = 0.4000 0.3333 0.1429 (  2654 PWs)   bands (ev):

   -43.7731 -43.7709 -11.1749 -11.1719 -11.1349 -11.1245 -11.1143 -11.1117
     0.7799   1.4030   2.1995   3.1256   3.8584   4.7377  14.3573  16.4474
    16.7620  17.2797  17.5680  18.0188  18.6288  19.4695  19.8234  20.4965
    21.3564  21.5275  22.3240  22.8204  22.9211  23.0802  23.7206  26.6561
    28.7550  28.9696  29.5277  29.7641  29.8076  29.9162  29.9906  30.4244
    30.7338  31.2544  33.9239  35.7377  36.9728  37.6191  37.8583  38.5548
    39.1642  39.4947  39.6659  40.1793  41.3162  41.6764  42.0122  42.4926
    42.6662  43.2657  43.8022  44.0196  44.5488  45.5522  45.8321  47.1549
    47.4028  47.8407  48.0716

          k = 0.4000 0.3333 0.2857 (  2651 PWs)   bands (ev):

   -43.7704 -43.7700 -11.1690 -11.1668 -11.1460 -11.1284 -11.1192 -11.1174
     1.0934   1.6609   2.1641   3.1576   3.6751   3.9380  15.9934  16.5411
    16.9649  17.0940  17.6606  18.0641  18.6214  19.6376  20.1615  20.4599
    21.0712  21.4705  21.7383  22.5664  22.8823  22.9575  23.5882  24.3853
    28.7976  28.8231  28.9335  29.8252  30.0729  30.1616  30.4907  30.6696
    30.7903  30.9585  34.0938  36.0836  37.1852  37.6901  37.9701  38.2463
    39.9557  40.0318  40.2175  40.9006  41.3441  41.4729  42.1345  42.7601
    42.9226  43.3249  43.6500  44.2210  44.8126  44.9181  45.7997  46.2194
    46.6810  47.5096  47.5980

          k = 0.4000 0.3333 0.4286 (  2646 PWs)   bands (ev):

   -43.7686 -43.7678 -11.1656 -11.1653 -11.1448 -11.1326 -11.1243 -11.1198
     1.4983   1.8629   2.2538   2.9110   3.2895   3.6023  16.5368  16.6773
    16.8925  17.7879  18.0787  18.6785  19.1097  19.8053  20.2653  20.4304
    20.9482  20.9848  21.3721  22.0594  22.3556  22.4830  22.6696  23.4310
    28.8221  28.9069  28.9916  29.8594  30.1007  30.4423  30.6686  30.7603
    30.7888  30.9638  34.9102  36.3326  36.7930  37.2728  37.7636  38.3741
    40.1988  40.5470  40.6447  40.7189  41.3319  41.5757  41.9549  42.1894
    43.0463  43.3720  43.7028  44.4808  44.6568  45.2427  46.0496  46.2917
    47.0260  47.5605  47.9216

          k = 0.4000-0.5000 0.0000 (  2650 PWs)   bands (ev):

   -43.7710 -43.7710 -11.1830 -11.1821 -11.1252 -11.1251 -11.1092 -11.1050
     0.9510   1.4545   2.3585   2.5420   3.7336   5.0830  13.7590  16.4127
    17.3545  17.4031  17.8985  18.7320  19.0550  19.1093  19.8912  20.3144
    20.5477  21.6872  21.8307  22.5094  23.1404  23.1869  23.4141  27.2715
    28.4584  28.6884  28.8120  29.9488  29.9569  29.9702  30.2055  30.6042
    30.6364  31.1852  35.3219  35.5738  36.9042  37.4065  37.8620  38.2366
    38.3775  39.5035  39.7922  40.0990  40.1224  40.6845  41.4156  41.8491
    43.4312  44.1769  44.5855  44.9830  45.7640  45.8222  46.3375  47.7740
    48.0017  48.1618  48.4746

          k = 0.4000-0.5000 0.1429 (  2650 PWs)   bands (ev):

   -43.7706 -43.7701 -11.1806 -11.1799 -11.1272 -11.1271 -11.1124 -11.1094
     1.0776   1.5230   2.4000   2.5655   3.6177   4.7195  14.4148  16.7271
    17.1911  17.2669  17.8839  18.6111  19.2610  19.2635  20.0262  20.2476
    20.5742  21.5307  21.6848  22.4168  22.9965  23.0389  23.2382  26.5121
    28.6350  28.7537  29.1844  29.6179  29.6293  30.0568  30.1022  30.6355
    30.6679  31.2150  35.2578  35.5023  37.0347  37.2197  37.9669  38.9402
    39.0226  39.3127  39.7190  40.6340  41.1695  41.4705  41.6797  42.0959
    43.0333  43.2986  43.8259  44.3410  45.2696  45.7220  46.4364  47.0065
    47.2104  47.5086  48.2423

          k = 0.4000-0.5000 0.2857 (  2640 PWs)   bands (ev):

   -43.7664 -43.7663 -11.1673 -11.1672 -11.1373 -11.1370 -11.1150 -11.1134
     1.4503   1.7112   2.4946   2.5948   3.3538   3.8922  16.0872  16.7240
    16.7945  17.6682  18.1045  18.6951  19.6565  19.7067  20.0886  20.2319
    20.6123  20.9548  21.5537  21.9749  22.4739  22.5339  22.8889  24.2868
    28.8535  28.8740  29.2564  29.2815  30.0199  30.4362  30.4980  30.8007
    30.8225  30.9714  35.3654  35.5292  37.0397  37.2388  37.5427  38.9164
    40.2798  40.3124  40.8607  40.9714  41.0826  41.6450  41.6461  42.1768
    42.4571  43.1922  43.9295  44.8893  45.0477  45.1913  45.6083  45.9861
    47.0077  47.1977  48.0359

          k = 0.4000-0.5000 0.4286 (  2640 PWs)   bands (ev):

   -43.7655 -43.7655 -11.1605 -11.1603 -11.1388 -11.1387 -11.1264 -11.1259
     1.9430   2.0275   2.5295   2.5493   3.0260   3.1556  16.4182  16.4185
    17.9248  18.3492  18.9856  19.1287  19.9973  19.9998  20.2280  20.3049
    20.5854  20.6774  21.2132  21.2576  21.7965  21.8561  22.0216  22.1862
    29.0111  29.1155  29.5190  29.5218  30.0621  30.2916  30.9479  30.9516
    31.0386  31.0405  36.0222  36.0889  36.9381  37.0760  37.4783  37.8959
    39.6160  39.6211  41.0401  41.1388  41.5102  41.7012  41.9018  41.9069
    43.3552  43.4409  44.1648  44.2529  45.2886  45.3961  46.9387  46.9702
    47.3538  47.3872  47.4362

     the Fermi energy is    42.6126 ev

!    total energy              =    -977.24227687 Ry
     Harris-Foulkes estimate   =    -977.24234333 Ry
     estimated scf accuracy    <       0.00007121 Ry

     The total energy is the sum of the following terms:

     one-electron contribution =     154.51447627 Ry
     hartree contribution      =      79.20587220 Ry
     xc contribution           =    -118.86250050 Ry
     ewald contribution        =   -1091.81461178 Ry
     smearing contrib. (-TS)   =      -0.28551306 Ry

     convergence has been achieved in   9 iterations

     Forces acting on atoms (Ry/au):

     atom    1 type  1   force =     0.00000000    0.00000000    0.00000000
     atom    2 type  1   force =     0.00000000    0.00000000    0.00000000
     atom    3 type  1   force =     0.00000000    0.00000000    0.00000000
     atom    4 type  1   force =     0.00000000    0.00000000    0.00000000
     atom    5 type  1   force =     0.00000000    0.00000000    0.00000000
     atom    6 type  1   force =     0.00000000    0.00000000    0.00000000
     atom    7 type  2   force =     0.00000000    0.00000000    0.00000000
     atom    8 type  2   force =     0.00000000    0.00000000    0.00000000

     Total force =     0.000000     Total SCF correction =     0.000000


     entering subroutine stress ...

          total   stress  (Ry/bohr**3)                   (kbar)     P= 5012.10
   0.03407157   0.00000000   0.00000000       5012.10      0.00      0.00
   0.00000000   0.03407157   0.00000000          0.00   5012.10      0.00
   0.00000000   0.00000000   0.03407157          0.00      0.00   5012.10


     BFGS Geometry Optimization

     number of scf cycles    =   1
     number of bfgs steps    =   0

     enthalpy new            =    -977.2422768668 Ry

     new trust radius        =       0.5000000000 bohr
     new conv_thr            =       0.0001000000 Ry

     new unit-cell volume =    828.02266 a.u.^3 (   122.70030 Ang^3 )

CELL_PARAMETERS (alat=  8.53457320)
   1.100269143   0.000000000   0.000000000
   0.000000000   1.100269143   0.000000000
   0.000000000   0.000000000   1.100269143

ATOMIC_POSITIONS (crystal)
Cr       0.000000000   0.500000000   0.250000000
Cr       0.000000000   0.500000000   0.750000000
Cr       0.500000000   0.750000000   0.000000000
Cr       0.500000000   0.250000000   0.000000000
Cr       0.750000000   0.000000000   0.500000000
Cr       0.250000000   0.000000000   0.500000000
Si       0.500000000   0.500000000   0.500000000
Si       0.000000000   0.000000000   0.000000000



     Writing output data file Prototype-La-cP8-Cr3Si.save
     NEW-OLD atomic charge density approx. for the potential
     NEW k-points:
        k(    1) = (   0.0000000   0.0000000   0.0000000), wk =   0.0095238
        k(    2) = (   0.0000000   0.0000000   0.1298384), wk =   0.0190476
        k(    3) = (   0.0000000   0.0000000   0.2596767), wk =   0.0190476
        k(    4) = (   0.0000000   0.0000000   0.3895151), wk =   0.0190476
        k(    5) = (   0.0000000   0.1514781   0.0000000), wk =   0.0190476
        k(    6) = (   0.0000000   0.1514781   0.1298384), wk =   0.0380952
        k(    7) = (   0.0000000   0.1514781   0.2596767), wk =   0.0380952
        k(    8) = (   0.0000000   0.1514781   0.3895151), wk =   0.0380952
        k(    9) = (   0.0000000   0.3029562   0.0000000), wk =   0.0190476
        k(   10) = (   0.0000000   0.3029562   0.1298384), wk =   0.0380952
        k(   11) = (   0.0000000   0.3029562   0.2596767), wk =   0.0380952
        k(   12) = (   0.0000000   0.3029562   0.3895151), wk =   0.0380952
        k(   13) = (   0.0000000  -0.4544343   0.0000000), wk =   0.0095238
        k(   14) = (   0.0000000  -0.4544343   0.1298384), wk =   0.0190476
        k(   15) = (   0.0000000  -0.4544343   0.2596767), wk =   0.0190476
        k(   16) = (   0.0000000  -0.4544343   0.3895151), wk =   0.0190476
        k(   17) = (   0.1817737   0.0000000   0.0000000), wk =   0.0190476
        k(   18) = (   0.1817737   0.0000000   0.1298384), wk =   0.0380952
        k(   19) = (   0.1817737   0.0000000   0.2596767), wk =   0.0380952
        k(   20) = (   0.1817737   0.0000000   0.3895151), wk =   0.0380952
        k(   21) = (   0.1817737   0.1514781   0.0000000), wk =   0.0380952
        k(   22) = (   0.1817737   0.1514781   0.1298384), wk =   0.0761905
        k(   23) = (   0.1817737   0.1514781   0.2596767), wk =   0.0761905
        k(   24) = (   0.1817737   0.1514781   0.3895151), wk =   0.0761905
        k(   25) = (   0.1817737   0.3029562   0.0000000), wk =   0.0380952
        k(   26) = (   0.1817737   0.3029562   0.1298384), wk =   0.0761905
        k(   27) = (   0.1817737   0.3029562   0.2596767), wk =   0.0761905
        k(   28) = (   0.1817737   0.3029562   0.3895151), wk =   0.0761905
        k(   29) = (   0.1817737  -0.4544343   0.0000000), wk =   0.0190476
        k(   30) = (   0.1817737  -0.4544343   0.1298384), wk =   0.0380952
        k(   31) = (   0.1817737  -0.4544343   0.2596767), wk =   0.0380952
        k(   32) = (   0.1817737  -0.4544343   0.3895151), wk =   0.0380952
        k(   33) = (   0.3635474   0.0000000   0.0000000), wk =   0.0190476
        k(   34) = (   0.3635474   0.0000000   0.1298384), wk =   0.0380952
        k(   35) = (   0.3635474   0.0000000   0.2596767), wk =   0.0380952
        k(   36) = (   0.3635474   0.0000000   0.3895151), wk =   0.0380952
        k(   37) = (   0.3635474   0.1514781   0.0000000), wk =   0.0380952
        k(   38) = (   0.3635474   0.1514781   0.1298384), wk =   0.0761905
        k(   39) = (   0.3635474   0.1514781   0.2596767), wk =   0.0761905
        k(   40) = (   0.3635474   0.1514781   0.3895151), wk =   0.0761905
        k(   41) = (   0.3635474   0.3029562   0.0000000), wk =   0.0380952
        k(   42) = (   0.3635474   0.3029562   0.1298384), wk =   0.0761905
        k(   43) = (   0.3635474   0.3029562   0.2596767), wk =   0.0761905
        k(   44) = (   0.3635474   0.3029562   0.3895151), wk =   0.0761905
        k(   45) = (   0.3635474  -0.4544343   0.0000000), wk =   0.0190476
        k(   46) = (   0.3635474  -0.4544343   0.1298384), wk =   0.0380952
        k(   47) = (   0.3635474  -0.4544343   0.2596767), wk =   0.0380952
        k(   48) = (   0.3635474  -0.4544343   0.3895151), wk =   0.0380952

     total cpu time spent up to now is      185.9 secs

     Self-consistent Calculation

     iteration #  1     ecut=    40.00 Ry     beta=0.70
     CG style diagonalization
     c_bands:  3 eigenvalues not converged
     c_bands:  1 eigenvalues not converged
     c_bands:  5 eigenvalues not converged
     c_bands:  1 eigenvalues not converged
     c_bands:  1 eigenvalues not converged
     c_bands:  1 eigenvalues not converged
     c_bands:  1 eigenvalues not converged
     c_bands:  1 eigenvalues not converged
     c_bands:  1 eigenvalues not converged
     c_bands:  2 eigenvalues not converged
     c_bands:  2 eigenvalues not converged
     c_bands:  2 eigenvalues not converged
     c_bands:  1 eigenvalues not converged
     c_bands:  1 eigenvalues not converged
     c_bands:  3 eigenvalues not converged
     c_bands:  1 eigenvalues not converged
     c_bands:  2 eigenvalues not converged
     c_bands:  1 eigenvalues not converged
     c_bands:  1 eigenvalues not converged
     c_bands:  1 eigenvalues not converged
     ethr =  1.00E-06,  avg # of iterations = 21.7

     total cpu time spent up to now is      242.8 secs

     total energy              =    -976.22218160 Ry
     Harris-Foulkes estimate   =    -988.50308479 Ry
     estimated scf accuracy    <      16.00348679 Ry

     iteration #  2     ecut=    40.00 Ry     beta=0.70
     CG style diagonalization
     ethr =  1.00E-02,  avg # of iterations =  3.7

     total cpu time spent up to now is      252.9 secs

     total energy              =    -977.68435018 Ry
     Harris-Foulkes estimate   =    -983.14200017 Ry
     estimated scf accuracy    <       8.88246366 Ry

     iteration #  3     ecut=    40.00 Ry     beta=0.70
     CG style diagonalization
     ethr =  7.93E-03,  avg # of iterations =  3.5

     total cpu time spent up to now is      262.5 secs

     total energy              =    -981.22691696 Ry
     Harris-Foulkes estimate   =    -981.72943743 Ry
     estimated scf accuracy    <       1.01872010 Ry

     iteration #  4     ecut=    40.00 Ry     beta=0.70
     CG style diagonalization
     ethr =  9.10E-04,  avg # of iterations =  3.5

     total cpu time spent up to now is      271.8 secs

     total energy              =    -981.31484678 Ry
     Harris-Foulkes estimate   =    -981.37979175 Ry
     estimated scf accuracy    <       0.14074455 Ry

     iteration #  5     ecut=    40.00 Ry     beta=0.70
     CG style diagonalization
     ethr =  1.26E-04,  avg # of iterations =  3.5

     total cpu time spent up to now is      281.6 secs

     total energy              =    -981.34564362 Ry
     Harris-Foulkes estimate   =    -981.34708750 Ry
     estimated scf accuracy    <       0.00313266 Ry

     iteration #  6     ecut=    40.00 Ry     beta=0.70
     CG style diagonalization
     c_bands:  1 eigenvalues not converged
     c_bands:  1 eigenvalues not converged
     c_bands:  1 eigenvalues not converged
     c_bands:  1 eigenvalues not converged
     c_bands:  1 eigenvalues not converged
     c_bands:  1 eigenvalues not converged
     c_bands:  1 eigenvalues not converged
     c_bands:  1 eigenvalues not converged
     c_bands:  1 eigenvalues not converged
     c_bands:  1 eigenvalues not converged
     c_bands:  1 eigenvalues not converged
     c_bands:  1 eigenvalues not converged
     c_bands:  1 eigenvalues not converged
     c_bands:  1 eigenvalues not converged
     ethr =  2.80E-06,  avg # of iterations =  5.3

     total cpu time spent up to now is      296.4 secs

     total energy              =    -981.34807301 Ry
     Harris-Foulkes estimate   =    -981.34822603 Ry
     estimated scf accuracy    <       0.00028940 Ry

     iteration #  7     ecut=    40.00 Ry     beta=0.70
     CG style diagonalization
     c_bands:  1 eigenvalues not converged
     c_bands:  1 eigenvalues not converged
     c_bands:  1 eigenvalues not converged
     c_bands:  1 eigenvalues not converged
     ethr =  2.58E-07,  avg # of iterations =  4.5

     total cpu time spent up to now is      308.9 secs

     total energy              =    -981.34786909 Ry
     Harris-Foulkes estimate   =    -981.34850231 Ry
     estimated scf accuracy    <       0.00110518 Ry

     iteration #  8     ecut=    40.00 Ry     beta=0.70
     CG style diagonalization
     c_bands:  1 eigenvalues not converged
     ethr =  2.58E-07,  avg # of iterations =  4.0

     total cpu time spent up to now is      320.1 secs

     End of self-consistent calculation

          k = 0.0000 0.0000 0.0000 (  2601 PWs)   bands (ev):

   -52.5425 -52.4755 -19.7720 -19.7720 -19.7720 -19.7389 -19.7389 -19.7389
    -8.4152  -7.3306  -7.3306  -5.4310  -5.4310  -5.4310   6.3963   6.3963
     7.3311   8.8720   8.8720   8.8720  10.9810  10.9810  10.9810  11.9921
    11.9921  11.9921  12.3925  12.3925  12.3925  16.0149  16.0149  16.0149
    20.4655  20.4655  21.1234  21.1234  21.4037  21.4037  21.4037  21.7491
    21.7491  21.7491  23.9944  24.5273  25.4843  25.4843  25.4843  27.2696
    28.0183  28.0183  28.0183  29.5639  29.6397  29.6397  31.9183  31.9183
    31.9183  32.0473  32.0473  33.9627  33.9627  33.9627  34.9400  34.9400
    34.9401  36.6353  39.1186

          k = 0.0000 0.0000 0.1298 (  2657 PWs)   bands (ev):

   -52.5891 -52.5490 -19.7910 -19.7910 -19.7868 -19.7753 -19.7752 -19.7752
    -8.3526  -7.3729  -7.2674  -5.5710  -5.4332  -5.4332   6.4150   6.5489
     7.4446   8.8360   8.8360   9.0615  10.9667  10.9667  11.0302  11.7525
    12.1404  12.1404  12.2981  12.3412  12.3412  15.2934  15.9953  15.9953
    20.4551  20.6557  21.0223  21.0762  21.2661  21.2661  21.4092  21.6008
    21.6008  21.7230  24.0361  24.2735  25.7440  25.7440  26.6234  27.3776
    27.5452  28.2473  28.2473  29.5377  29.5556  30.4967  31.3848  31.3848
    31.8287  31.8291  32.0396  33.8631  34.3108  34.3110  35.1138  35.1138
    35.5468  37.0525  37.5319

          k = 0.0000 0.0000 0.2597 (  2677 PWs)   bands (ev):

   -52.6010 -52.5795 -19.8056 -19.7962 -19.7962 -19.7948 -19.7819 -19.7819
    -8.1802  -7.4981  -7.0794  -5.9277  -5.4380  -5.4380   6.4783   6.6410
     8.2349   8.7636   8.7636   9.5043  10.9907  10.9907  11.1664  11.2013
    12.0741  12.2272  12.2272  12.4736  12.4736  13.6106  15.9547  15.9547
    20.4125  20.8278  20.8278  20.8810  20.9407  20.9826  21.4381  21.4476
    21.4476  21.6610  23.7712  24.7669  26.3786  26.3786  26.6946  28.3149
    28.5896  28.7451  28.7451  29.2694  29.5096  30.7526  30.7526  31.3130
    31.4539  31.9274  32.6559  33.2253  33.8848  33.8848  35.0445  35.0446
    35.8482  36.2464  36.5252

          k = 0.0000 0.0000 0.3895 (  2658 PWs)   bands (ev):

   -52.5716 -52.5693 -19.7876 -19.7876 -19.7870 -19.7804 -19.7804 -19.7801
    -7.9412  -7.6966  -6.7720  -6.3670  -5.4418  -5.4418   6.5458   6.6004
     8.7085   8.7085   9.6096  10.1411  10.4979  11.0310  11.0310  11.4635
    11.6836  11.7740  12.1422  12.1422  12.7381  12.7381  15.9273  15.9273
    20.4431  20.4431  20.4681  20.6809  20.9995  21.0524  21.3814  21.3814
    21.4975  21.5783  23.8782  24.3414  26.9873  26.9873  27.6406  28.7629
    29.0818  29.0818  29.4221  29.6484  30.2398  30.4815  30.4815  30.5950
    30.9614  31.7932  32.5916  33.0927  33.0927  33.6800  34.8887  34.8887
    35.7032  35.8803  35.9205

          k = 0.0000 0.1515 0.0000 (  2653 PWs)   bands (ev):

   -52.5818 -52.5489 -19.7884 -19.7884 -19.7815 -19.7754 -19.7751 -19.7751
    -8.3306  -7.3881  -7.2446  -5.6187  -5.4339  -5.4339   6.4239   6.5827
     7.5160   8.8261   8.8261   9.1257  10.9682  10.9682  11.0514  11.6712
    12.1860  12.1860  12.2692  12.3301  12.3301  15.0609  15.9910  15.9910
    20.4497  20.7072  20.9984  21.0595  21.2103  21.2103  21.4122  21.5675
    21.5675  21.7150  23.9638  24.3732  25.8318  25.8318  26.9200  27.2098
    27.6424  28.3235  28.3235  29.5031  29.5455  30.7910  31.2618  31.2618
    31.7607  31.7931  32.0276  33.8052  34.3153  34.3153  35.1605  35.1605
    35.6985  37.4413  37.4415

          k = 0.0000 0.1515 0.1298 (  2662 PWs)   bands (ev):

   -52.5983 -52.5526 -19.7971 -19.7966 -19.7897 -19.7872 -19.7718 -19.7693
    -8.2688  -7.3658  -7.2436  -5.6305  -5.5661  -5.4361   6.5007   6.7798
     7.5450   8.8187   9.0152   9.0971  10.7659  10.8639  11.3048  11.8429
    12.0098  12.0502  12.2777  12.2877  12.4687  15.0441  15.2804  15.9740
    20.5348  20.7817  20.9445  20.9944  21.1783  21.2092  21.2678  21.3702
    21.4824  21.6541  23.8406  24.6194  26.0700  26.1860  27.4410  27.5127
    27.7670  27.9241  28.5428  29.4353  30.3620  30.6239  30.9607  30.9751
    31.7225  31.7252  32.2277  33.5579  34.5904  34.6578  34.8319  35.3508
    35.5536  36.1158  36.8017

          k = 0.0000 0.1515 0.2597 (  2666 PWs)   bands (ev):

   -52.5880 -52.5724 -19.7973 -19.7917 -19.7905 -19.7874 -19.7823 -19.7788
    -8.0989  -7.4444  -7.0948  -5.9408  -5.6217  -5.4408   6.5445   7.0363
     8.1628   8.7986   9.0427   9.4495  10.6824  10.6825  11.3909  11.5300
    11.9303  12.1575  12.2475  12.5128  12.5358  13.6338  15.0291  15.9369
    20.5013  20.7505  20.8157  20.8971  20.9673  21.0061  21.2126  21.2132
    21.3272  21.6364  23.8232  25.0541  26.6712  26.7900  27.0016  28.2054
    28.6751  29.0136  29.0155  29.1833  30.2017  30.5005  30.6681  31.4061
    31.5414  32.1886  32.5516  33.0017  33.8776  34.0612  34.3209  34.8665
    35.3129  36.0141  37.0986

          k = 0.0000 0.1515 0.3895 (  2658 PWs)   bands (ev):

   -52.5772 -52.5656 -19.7922 -19.7881 -19.7879 -19.7829 -19.7812 -19.7743
    -7.8693  -7.6238  -6.7927  -6.3829  -5.6274  -5.4447   6.5660   7.0620
     8.7800   8.8529   9.6524   9.9747  10.4044  10.7333  11.2017  11.2228
    11.6720  12.0102  12.0941  12.4781  12.5786  12.7672  15.0074  15.9109
    20.3369  20.4258  20.5713  20.7639  21.0024  21.0757  21.1901  21.2212
    21.2459  21.6245  24.1061  24.6694  27.2321  27.2905  27.6325  28.6960
    29.0562  29.1628  29.7147  30.0418  30.2980  30.3903  30.8870  31.1165
    31.1306  31.2862  32.4440  32.8884  33.0178  34.0466  34.4210  34.6414
    35.1113  35.9842  36.5836

          k = 0.0000 0.3030 0.0000 (  2677 PWs)   bands (ev):

   -52.6012 -52.5787 -19.7976 -19.7961 -19.7961 -19.7900 -19.7883 -19.7883
    -8.1050  -7.5571  -6.9897  -6.0717  -5.4396  -5.4396   6.5019   6.6324
     8.6561   8.7403   8.7403   9.6839  10.9412  11.0050  11.0050  11.2804
    11.9809  12.1931  12.1931  12.5792  12.5792  12.9782  15.9393  15.9393
    20.4108  20.6714  20.6714  20.8340  20.9507  21.0150  21.4175  21.4175
    21.4551  21.6347  23.7679  24.7103  26.6118  26.6118  26.8511  28.6562
    28.8946  28.8946  29.1057  29.3450  29.5214  30.6192  30.6192  31.0775
    31.2242  31.8831  32.9388  33.4666  33.5902  33.5902  34.9645  34.9645
    35.5181  35.9770  36.2679

          k = 0.0000 0.3030 0.1298 (  2660 PWs)   bands (ev):

   -52.5779 -52.5694 -19.7962 -19.7920 -19.7853 -19.7820 -19.7796 -19.7757
    -8.0460  -7.5119  -7.0040  -6.0815  -5.5779  -5.4417   6.5511   6.9315
     8.5377   8.7788   9.0110   9.6316  10.6440  10.7394  11.3495  11.3833
    11.9019  12.1440  12.3727  12.4590  12.6165  13.0304  15.2484  15.9324
    20.4672  20.6323  20.6610  20.8589  20.9615  21.0386  21.2494  21.2723
    21.3312  21.6249  23.8511  24.9477  26.8267  26.8794  27.0162  28.5820
    28.8695  29.1018  29.1219  29.5346  30.0919  30.4362  30.4571  31.2769
    31.3843  32.0099  32.6052  33.3997  33.5748  33.8706  34.3160  34.7521
    35.1630  35.9337  36.9955

          k = 0.0000 0.3030 0.2597 (  2658 PWs)   bands (ev):

   -52.5829 -52.5624 -19.7898 -19.7894 -19.7859 -19.7851 -19.7826 -19.7768
    -7.8934  -7.4110  -7.0082  -6.1377  -5.8967  -5.4466   6.5648   7.8513
     8.5498   8.8692   9.3819   9.5146  10.4678  10.5039  11.0322  11.5461
    12.0332  12.0686  12.2860  12.6671  12.7296  13.0253  13.6653  15.8982
    20.4565  20.6092  20.6164  20.7131  20.8282  20.9211  21.0980  21.1602
    21.1626  21.6671  24.1640  25.4196  27.2738  27.4036  27.5945  27.9762
    28.8493  29.3902  29.5412  30.0126  30.1805  30.3175  31.1027  31.1103
    31.6017  32.3795  32.6263  33.1882  33.6782  33.6985  33.8251  34.5260
    34.8655  35.6821  36.8332

          k = 0.0000 0.3030 0.3895 (  2654 PWs)   bands (ev):

   -52.5700 -52.5650 -19.7941 -19.7898 -19.7850 -19.7839 -19.7747 -19.7739
    -7.7298  -7.3922  -6.8367  -6.4507  -6.0329  -5.4504   6.5789   8.3529
     8.9497   9.1093   9.6466   9.7828  10.4520  10.4711  10.6985  11.2802
    11.5850  12.0216  12.2624  12.5619  12.7587  12.8566  13.0634  15.8659
    20.2689  20.3412  20.4588  20.6772  20.7625  20.8843  21.0711  21.1684
    21.2261  21.6908  24.7493  25.3910  27.2067  27.7339  28.1031  28.5851
    28.9170  29.4665  29.7931  29.8051  30.4210  30.6280  30.6910  30.9051
    31.7172  31.7823  32.8390  33.4528  33.4941  34.1294  34.2519  34.4143
    34.9981  35.6613  36.6660

          k = 0.0000-0.4544 0.0000 (  2666 PWs)   bands (ev):

   -52.5781 -52.5781 -19.7879 -19.7879 -19.7878 -19.7878 -19.7872 -19.7872
    -7.8158  -7.8158  -6.5791  -6.5791  -5.4424  -5.4424   6.5721   6.5721
     8.7008   8.7008  10.1372  10.1372  10.7854  10.7854  11.0376  11.0376
    11.6154  11.6154  12.1271  12.1271  12.7763  12.7763  15.9226  15.9226
    20.3862  20.3862  20.5624  20.5624  21.0361  21.0361  21.3731  21.3731
    21.5360  21.5360  24.0662  24.0662  27.0899  27.0899  28.2911  28.2911
    29.1176  29.1176  29.8926  29.8926  30.0230  30.0230  30.4559  30.4559
    31.5962  31.5962  32.8738  32.8738  32.9583  32.9583  34.8763  34.8763
    35.7168  35.7168  37.2824

          k = 0.0000-0.4544 0.1298 (  2666 PWs)   bands (ev):

   -52.5786 -52.5784 -19.7947 -19.7945 -19.7868 -19.7863 -19.7835 -19.7832
    -7.7886  -7.7352  -6.6091  -6.5768  -5.5813  -5.4446   6.5704   6.9353
     8.7576   8.8253  10.0190  10.1515  10.6456  10.7535  10.8051  11.2656
    11.2666  11.9449  12.0911  12.4099  12.6411  12.7946  15.2283  15.9085
    20.2975  20.3732  20.5910  20.6947  21.0409  21.0498  21.2272  21.2572
    21.3037  21.6082  24.2715  24.2958  27.2224  27.3197  28.0963  28.4031
    29.1601  29.2506  29.9280  30.0327  30.2339  30.2415  30.7854  30.8571
    31.2177  31.6033  32.1946  32.6842  32.8083  34.1518  34.1655  34.7176
    35.2473  36.5460  36.7910

          k = 0.0000-0.4544 0.2597 (  2658 PWs)   bands (ev):

   -52.5714 -52.5711 -19.7952 -19.7948 -19.7867 -19.7858 -19.7746 -19.7739
    -7.7220  -7.5053  -6.6819  -6.5883  -5.9188  -5.4494   6.5748   7.9370
     8.9043   9.0917   9.7516  10.1857  10.5306  10.6614  10.7028  10.7727
    11.4314  12.0307  12.3175  12.4501  12.7049  12.8523  13.6386  15.8730
    20.2359  20.3224  20.5555  20.7935  20.8115  20.8527  21.0996  21.1522
    21.1832  21.6784  24.8230  24.8919  27.4085  27.7727  27.9688  28.5485
    29.2232  29.3321  29.6427  29.8478  30.4755  30.7639  30.7963  30.9559
    31.5343  31.9203  32.1849  33.2492  33.5241  33.5492  34.1437  34.4173
    35.6502  35.8832  36.9477

          k = 0.0000-0.4544 0.3895 (  2662 PWs)   bands (ev):

   -52.5756 -52.5756 -19.7930 -19.7930 -19.7911 -19.7897 -19.7801 -19.7792
    -7.6612  -7.1888  -6.7478  -6.6971  -6.2169  -5.4533   6.5933   9.0624
     9.1650   9.2793   9.7673  10.2331  10.3874  10.4212  10.6849  10.6973
    11.1994  11.9845  12.0142  12.1264  12.8007  12.8361  12.9268  15.8408
    20.1775  20.1872  20.2345  20.5231  20.8720  20.8756  21.0064  21.2684
    21.2718  21.7140  25.5257  25.5492  26.7437  27.5751  28.6420  28.9432
    29.1197  29.5188  29.7680  29.7929  30.1554  30.2129  30.4131  30.8312
    31.9266  32.0193  33.2815  33.2893  33.8513  34.0657  34.6735  34.9500
    35.4715  36.2722  36.4157

          k = 0.1818 0.0000 0.0000 (  2661 PWs)   bands (ev):

   -52.5999 -52.5484 -19.7951 -19.7951 -19.7929 -19.7756 -19.7748 -19.7748
    -8.2950  -7.4133  -7.2069  -5.6947  -5.4350  -5.4350   6.4378   6.6175
     7.6573   8.8092   8.8092   9.2218  10.9718  10.9718  11.0863  11.5416
    12.2226  12.2435  12.2435  12.3231  12.3231  14.6921  15.9798  15.9798
    20.4397  20.7773  20.9699  21.0325  21.1161  21.1161  21.4175  21.5261
    21.5261  21.7021  23.8827  24.5142  25.9703  25.9703  26.9835  27.3606
    27.8008  28.4368  28.4368  29.4471  29.5307  31.0978  31.0978  31.2555
    31.6537  31.7269  32.0048  33.6877  34.2647  34.2647  35.1817  35.1818
    35.8728  36.9290  37.0667

          k = 0.1818 0.0000 0.1298 (  2667 PWs)   bands (ev):

   -52.5924 -52.5689 -19.8010 -19.7962 -19.7928 -19.7845 -19.7764 -19.7762
    -8.2334  -7.3831  -7.2127  -5.7038  -5.5706  -5.4372   6.5128   6.8451
     7.6544   8.8110   9.0035   9.1889  10.7433  10.8296  11.3498  11.7463
    11.9981  12.0829  12.2570  12.3442  12.4772  14.6827  15.2720  15.9657
    20.5277  20.8407  20.9192  20.9716  21.1094  21.1122  21.2686  21.3247
    21.4420  21.6477  23.8084  24.7483  26.2013  26.3215  27.2514  27.8362
    27.9120  28.0829  28.6521  29.3879  30.3049  30.6885  30.8339  31.2537
    31.6498  31.6867  32.2614  33.4082  34.5254  34.5333  34.7515  35.2218
    35.7269  35.9018  36.8224

          k = 0.1818 0.0000 0.2597 (  2659 PWs)   bands (ev):

   -52.5786 -52.5683 -19.7904 -19.7889 -19.7847 -19.7845 -19.7814 -19.7791
    -8.0651  -7.4265  -7.0957  -5.9491  -5.6929  -5.4419   6.5498   7.2200
     8.1619   8.8120   9.1359   9.4290  10.6262  10.6284  11.3458  11.5946
    11.9863  12.1320  12.1801  12.5549  12.5702  13.6339  14.6785  15.9309
    20.5115  20.7333  20.8094  20.8806  20.9671  21.0357  21.1128  21.1410
    21.2850  21.6430  23.8603  25.1588  26.7926  26.9613  27.0983  28.0444
    28.8259  29.1073  29.1120  29.1906  30.1690  30.4332  31.0552  31.3678
    31.5636  32.0806  32.5603  33.1370  33.6903  34.0176  34.1597  34.7902
    35.2428  35.9786  37.0687

          k = 0.1818 0.0000 0.3895 (  2660 PWs)   bands (ev):

   -52.5790 -52.5676 -19.7909 -19.7893 -19.7890 -19.7826 -19.7822 -19.7793
    -7.8420  -7.5904  -6.8014  -6.3900  -5.7011  -5.4458   6.5668   7.2668
     8.8086   8.9049   9.6674   9.9107  10.3993  10.6631  11.1128  11.2350
    11.6664  12.0771  12.1251  12.5194  12.5530  12.7805  14.6559  15.9033
    20.3220  20.4174  20.5854  20.7783  20.9766  21.0872  21.1134  21.1551
    21.2018  21.6412  24.2036  24.8004  27.3506  27.4184  27.6044  28.6294
    29.0043  29.2134  29.7730  30.0678  30.3384  30.6293  30.8429  30.9980
    31.2459  31.3669  32.7152  32.7225  33.0075  33.8848  34.4794  34.5127
    35.1458  35.9312  36.4908

          k = 0.1818 0.1515 0.0000 (  2672 PWs)   bands (ev):

   -52.5911 -52.5819 -19.8096 -19.7945 -19.7932 -19.7865 -19.7838 -19.7749
    -8.2118  -7.3789  -7.2082  -5.7107  -5.6129  -5.4379   6.5207   6.9285
     7.6719   8.8118   9.0639   9.1798  10.7109  10.7949  11.3817  11.7854
    11.9693  12.0414  12.2358  12.3713  12.4995  14.6774  15.0456  15.9587
    20.5370  20.8682  20.9038  20.9582  21.1007  21.1104  21.2112  21.2663
    21.4107  21.6447  23.7973  24.8249  26.2799  26.4239  27.3212  27.7700
    28.0267  28.1810  28.7201  29.3543  30.4276  30.7403  30.7603  31.2525
    31.6152  31.6749  32.3201  33.3435  34.5107  34.5129  34.6347  35.1982
    35.7103  35.7677  36.7848

          k = 0.1818 0.1515 0.1298 (  2665 PWs)   bands (ev):

   -52.5903 -52.5683 -19.8030 -19.7946 -19.7895 -19.7869 -19.7779 -19.7732
    -8.1500  -7.3219  -7.2388  -5.7133  -5.6281  -5.5688   6.8229   6.9661
     7.6340   9.0086   9.0746   9.1739  10.3214  11.1808  11.3019  11.6888
    11.9656  12.1030  12.2007  12.4130  12.4808  14.6764  15.0346  15.2614
    20.6918  20.8290  20.8824  20.8924  21.0156  21.0843  21.1435  21.2006
    21.3841  21.4863  23.8035  25.0361  26.5779  26.6243  27.6089  27.9965
    28.2103  28.2343  28.6766  29.9365  30.2075  30.5595  30.7561  31.1550
    31.6371  32.0482  32.3019  33.4451  34.1046  34.2845  34.6881  34.7841
    35.4334  36.5103  36.8246

          k = 0.1818 0.1515 0.2597 (  2655 PWs)   bands (ev):

   -52.5852 -52.5518 -19.7912 -19.7901 -19.7863 -19.7814 -19.7777 -19.7724
    -7.9815  -7.3570  -7.1248  -5.9546  -5.7080  -5.6254   7.0046   7.2550
     8.0739   9.0855   9.1765   9.4313  10.0510  11.1406  11.2882  11.4703
    11.8691  12.1759  12.3278  12.4552  12.5715  13.6541  14.6703  15.0159
    20.6100  20.6767  20.7944  20.8656  20.9309  20.9733  21.0153  21.0672
    21.3151  21.4556  23.9557  25.4112  27.0662  27.1795  27.5015  28.3440
    28.6250  29.0355  29.4578  29.7587  29.9135  30.6268  31.0444  31.4428
    31.9623  32.4314  32.5418  32.8440  33.1907  33.6839  34.2662  34.3864
    35.7581  35.9566  36.5801

          k = 0.1818 0.1515 0.3895 (  2655 PWs)   bands (ev):

   -52.5700 -52.5647 -19.7922 -19.7864 -19.7852 -19.7828 -19.7774 -19.7767
    -7.7554  -7.5297  -6.8170  -6.4028  -5.7102  -5.6356   7.0530   7.2671
     8.8920   9.0397   9.6534   9.9013   9.9812  10.9546  11.0001  11.4664
    11.5793  11.7192  12.4477  12.5049  12.5938  12.6471  14.6502  14.9934
    20.3090  20.4213  20.7449  20.8028  20.8558  20.8950  21.0597  21.0848
    21.3428  21.4633  24.3888  25.0563  27.5883  27.6454  27.7886  28.6351
    29.2240  29.3012  29.8993  30.1768  30.4496  30.9261  31.0537  31.1952
    31.3494  31.7157  31.9557  32.3438  33.5710  33.7269  33.8806  34.5365
    35.4565  36.1148  36.4475

          k = 0.1818 0.3030 0.0000 (  2656 PWs)   bands (ev):

   -52.5807 -52.5595 -19.7914 -19.7884 -19.7863 -19.7813 -19.7798 -19.7740
    -7.9931  -7.4729  -7.0130  -6.0931  -5.6969  -5.4435   6.5577   7.2500
     8.5172   8.8110   9.1598   9.5842  10.5540  10.6269  11.2666  11.4655
    12.0382  12.1100  12.2325  12.5651  12.6491  13.0425  14.6701  15.9189
    20.4804  20.6178  20.6500  20.8541  20.9554  21.0766  21.1126  21.1380
    21.2493  21.6425  23.9432  25.1371  27.0230  27.1086  27.1602  28.3339
    28.9871  29.0646  29.2931  29.7196  30.1345  30.3491  30.9912  31.2677
    31.4775  31.7582  32.9480  33.3119  33.3910  33.8230  34.0257  34.6707
    34.9470  35.9688  37.0153

          k = 0.1818 0.3030 0.1298 (  2657 PWs)   bands (ev):

   -52.5831 -52.5577 -19.7909 -19.7884 -19.7863 -19.7850 -19.7786 -19.7755
    -7.9310  -7.4242  -7.0305  -6.0986  -5.7051  -5.5837   6.9073   7.2609
     8.4359   9.0265   9.2042   9.5802  10.0800  11.0402  11.1950  11.4971
    11.7866  12.2122  12.3990  12.4636  12.5901  13.0833  14.6636  15.2304
    20.4888  20.6015  20.7413  20.8468  20.9123  20.9893  21.0449  21.0620
    21.3034  21.5071  24.0327  25.3328  27.1476  27.3115  27.4378  28.5328
    28.9224  29.2519  29.3619  29.8990  30.1006  30.4618  31.0326  31.3482
    31.6755  32.1512  32.7404  32.8186  33.3484  33.6744  34.0982  34.2883
    35.4248  36.0764  36.6534

          k = 0.1818 0.3030 0.2597 (  2656 PWs)   bands (ev):

   -52.5793 -52.5580 -19.7913 -19.7879 -19.7879 -19.7843 -19.7795 -19.7739
    -7.7680  -7.3094  -7.0487  -6.1324  -5.9308  -5.7137   7.2520   7.8891
     8.4085   9.2738   9.3716   9.5487   9.7998  10.9914  11.1726  11.4734
    11.8748  11.9950  12.3264  12.5500  12.6637  13.0940  13.6588  14.6468
    20.4111  20.5250  20.7198  20.7447  20.8647  20.8974  20.9964  21.1120
    21.1880  21.4393  24.3511  25.7484  27.4528  27.8064  27.9543  28.2404
    29.1259  29.2868  29.5583  29.8486  30.7054  30.8847  31.4767  31.5131
[...]
    15.1951  15.3000  15.3075  15.4158  15.4943  15.5127  15.5412  15.5941
    15.6415  15.8265  18.3626  18.7989  21.0788  21.3216  21.3639  21.9739
    22.6584  22.8023  22.9474  23.2124  23.2148  23.7489  23.8846  24.2678
    24.7064  24.7125  25.6020  25.6479  25.9876  26.5042  27.2073  27.4043
    27.7415  28.2907  29.3288

          k = 0.1687 0.2811 0.1205 (  4420 PWs)   bands (ev):

   -58.6812 -58.6794 -25.6291 -25.6257 -25.6256 -25.6178 -25.6153 -25.6140
   -13.6676 -13.4254 -13.2099 -12.6759 -12.4721 -12.4103   1.9924   2.2326
     3.0531   3.6747   3.7421   3.9888   4.3614   4.9356   5.0511   5.2201
     5.3879   5.5824   5.7086   5.7346   5.8119   6.0971   7.1382   7.4901
    15.2377  15.2490  15.3663  15.4231  15.4718  15.4810  15.5079  15.5489
    15.6412  15.7413  18.4383  18.9373  21.2019  21.4757  21.5708  22.1441
    22.5224  22.8135  23.2738  23.3116  23.4120  23.4693  23.8869  24.6130
    24.6934  24.8071  25.4702  25.6264  25.9140  26.5261  26.7702  26.9252
    28.1370  28.5416  29.1570

          k = 0.1687 0.2811 0.2409 (  4424 PWs)   bands (ev):

   -58.6820 -58.6811 -25.6271 -25.6269 -25.6267 -25.6223 -25.6174 -25.6137
   -13.5790 -13.3565 -13.2151 -12.6891 -12.5893 -12.4743   2.2183   2.6507
     3.0293   3.8014   3.8797   3.9980   4.1736   4.9345   5.0185   5.2053
     5.4148   5.4641   5.6713   5.7684   5.8333   6.1153   6.4965   7.1365
    15.2006  15.2609  15.3351  15.3852  15.4172  15.4679  15.4828  15.5066
    15.5650  15.7026  18.6780  19.2472  21.5516  21.7767  21.9240  22.0177
    22.5948  22.8844  23.0477  23.6146  23.7607  23.9053  24.2857  24.5544
    24.9732  25.0679  25.5465  25.6773  25.7201  25.9833  26.4304  26.5771
    28.0411  28.2133  28.6720

          k = 0.1687 0.2811 0.3614 (  4438 PWs)   bands (ev):

   -58.6846 -58.6845 -25.6299 -25.6297 -25.6265 -25.6254 -25.6211 -25.6193
   -13.4952 -13.3423 -13.0942 -12.8607 -12.6668 -12.4782   2.2278   2.9614
     3.5558   3.8447   3.9563   4.0395   4.3196   4.8167   4.9140   5.0296
     5.2251   5.3650   5.5995   5.7600   5.7938   5.8543   6.1263   7.1332
    15.1201  15.1813  15.2867  15.3515  15.3787  15.4339  15.4737  15.5385
    15.5615  15.7387  19.0628  19.3703  21.3824  21.8410  22.2281  22.3186
    22.8848  23.1383  23.2279  23.6189  23.7124  24.0285  24.2789  24.4953
    24.7386  25.1366  25.3512  25.3930  26.1654  26.3895  26.5715  27.0523
    27.5911  27.9998  28.5588

          k = 0.1687-0.4216 0.0000 (  4428 PWs)   bands (ev):

   -58.6822 -58.6821 -25.6262 -25.6262 -25.6235 -25.6234 -25.6191 -25.6190
   -13.6040 -13.5274 -12.9714 -12.9503 -12.4714 -12.3426   1.7740   2.2282
     3.5757   3.5922   4.2317   4.3726   4.4872   4.5736   4.7052   4.9920
     5.0740   5.5081   5.6040   5.7523   5.7952   5.9066   7.1362   7.8902
    15.1271  15.1629  15.2558  15.3461  15.5136  15.5328  15.5452  15.6054
    15.6235  15.8367  18.6636  18.6638  21.4297  21.5713  21.6929  22.1171
    22.5656  22.6519  22.9306  23.6283  23.7755  23.9355  24.0510  24.1291
    24.2420  24.5852  25.3826  25.4326  25.8394  26.9799  27.0168  27.4174
    27.9363  28.3988  28.5902

          k = 0.1687-0.4216 0.1205 (  4414 PWs)   bands (ev):

   -58.6792 -58.6792 -25.6231 -25.6231 -25.6192 -25.6191 -25.6182 -25.6182
   -13.5533 -13.5163 -12.9701 -12.9603 -12.4729 -12.4120   2.0080   2.2270
     3.6289   3.6314   4.2039   4.2676   4.4942   4.5061   4.8492   4.9109
     5.2083   5.3350   5.7213   5.7761   5.7764   5.8423   7.1362   7.4866
    15.1384  15.1439  15.3284  15.3598  15.4512  15.4979  15.5357  15.5461
    15.6534  15.7541  18.7878  18.7890  21.5491  21.7087  21.8675  21.9596
    22.7083  22.8693  23.2459  23.6514  23.7562  23.8339  24.2173  24.2950
    24.2950  24.6392  24.9233  25.2503  26.3865  26.5975  26.9405  26.9999
    28.3762  28.4450  28.7211

          k = 0.1687-0.4216 0.2409 (  4434 PWs)   bands (ev):

   -58.6838 -58.6837 -25.6307 -25.6307 -25.6224 -25.6223 -25.6205 -25.6204
   -13.4896 -13.4117 -12.9856 -12.9695 -12.5947 -12.4773   2.2277   2.6696
     3.7145   3.7372   4.0709   4.1764   4.5119   4.5363   4.8655   4.8737
     5.2268   5.3290   5.6461   5.7628   5.7880   5.8416   6.4936   7.1336
    15.1341  15.1493  15.3094  15.3770  15.3906  15.4108  15.5027  15.5348
    15.5829  15.7247  19.1167  19.1201  21.4749  21.9186  22.1660  22.1791
    22.8302  23.0697  23.3160  23.5965  23.7248  24.2553  24.3779  24.4648
    24.5428  24.8457  25.0453  25.2876  26.2404  26.3147  26.7084  27.0168
    28.0915  28.3621  28.4474

          k = 0.1687-0.4216 0.3614 (  4442 PWs)   bands (ev):

   -58.6855 -58.6855 -25.6301 -25.6299 -25.6265 -25.6264 -25.6224 -25.6223
   -13.4657 -13.2149 -13.0083 -12.9893 -12.8031 -12.4806   2.2317   3.5662
     3.7320   3.9149   3.9509   4.2030   4.4652   4.6476   4.7454   4.8357
     5.0458   5.3629   5.4782   5.5144   5.8034   5.8103   5.8748   7.1308
    15.0921  15.1533  15.1931  15.3080  15.3641  15.4379  15.4460  15.5714
    15.5732  15.7688  19.4915  19.4932  21.0880  21.6461  22.2629  22.8676
    23.2874  23.3061  23.5342  23.6659  23.6830  23.9222  24.1302  24.4412
    24.4418  24.7390  24.7533  26.0343  26.7204  26.8567  27.0190  27.4192
    27.8537  28.3186  28.3519

          k = 0.3373 0.0000 0.0000 (  4432 PWs)   bands (ev):

   -58.6860 -58.6791 -25.6267 -25.6253 -25.6253 -25.6230 -25.6230 -25.6165
   -13.7078 -13.5469 -13.1054 -12.7797 -12.3418 -12.3418   1.7401   1.8102
     3.4955   3.4955   3.6259   4.1935   4.6887   4.8939   4.8939   5.2433
     5.4173   5.4691   5.5735   5.5735   5.8454   5.8454   7.8993   7.8993
    15.1776  15.2417  15.2417  15.3302  15.5218  15.5380  15.7195  15.7388
    15.7388  15.7417  18.2824  18.5487  21.0563  21.1766  21.1766  22.6170
    22.6291  22.6292  22.6613  22.8458  23.2858  23.6929  23.8254  23.8254
    24.3602  25.0836  25.6558  25.7458  25.7458  26.1694  27.7849  27.9364
    27.9365  28.6325  28.7767

          k = 0.3373 0.0000 0.1205 (  4425 PWs)   bands (ev):

   -58.6838 -58.6785 -25.6291 -25.6250 -25.6230 -25.6204 -25.6194 -25.6149
   -13.6777 -13.5171 -13.1114 -12.7839 -12.4098 -12.3419   1.7694   2.0140
     3.4682   3.5351   3.7268   4.1559   4.5907   4.7679   5.0245   5.1511
     5.3899   5.4916   5.5482   5.7409   5.7968   5.8607   7.4915   7.8956
    15.1714  15.2291  15.2517  15.3649  15.5210  15.5285  15.6211  15.6522
    15.6579  15.8083  18.3766  18.6929  21.1259  21.3463  21.3647  22.3719
    22.6019  22.7281  22.7734  23.3017  23.4129  23.7530  23.7669  24.1395
    24.4629  24.6621  25.3259  25.7270  26.0521  26.5901  27.3533  27.4030
    27.9242  28.3192  29.2308

          k = 0.3373 0.0000 0.2409 (  4426 PWs)   bands (ev):

   -58.6827 -58.6804 -25.6274 -25.6264 -25.6239 -25.6204 -25.6197 -25.6177
   -13.6166 -13.4193 -13.1203 -12.8000 -12.5846 -12.3432   1.7733   2.6648
     3.4560   3.6402   3.9157   4.0607   4.5442   4.6067   4.8658   5.1445
     5.3123   5.4895   5.6991   5.7148   5.8631   5.9148   6.4880   7.8874
    15.1464  15.1757  15.2458  15.3724  15.4103  15.4553  15.5610  15.5826
    15.5957  15.8638  18.6488  19.0247  21.1568  21.7488  21.8851  22.0040
    22.5902  22.8351  23.1310  23.4944  23.5533  23.8032  23.9577  24.3939
    24.6079  25.0090  25.3241  26.0560  26.2052  26.7513  26.8357  27.1136
    27.1243  27.6271  29.0771

          k = 0.3373 0.0000 0.3614 (  4429 PWs)   bands (ev):

   -58.6843 -58.6810 -25.6304 -25.6285 -25.6275 -25.6189 -25.6185 -25.6175
   -13.5742 -13.2993 -13.0736 -12.8942 -12.7317 -12.3443   1.7771   3.3731
     3.6170   3.7518   4.0474   4.1060   4.5320   4.5866   4.6326   4.9755
     5.0927   5.4445   5.5499   5.6653   5.8607   5.9027   5.9742   7.8808
    15.0688  15.1020  15.1323  15.3121  15.3906  15.4294  15.5616  15.6072
    15.6102  15.8944  19.0320  19.2390  20.8174  21.7934  22.5176  22.5556
    22.6865  22.8374  23.1028  23.3047  23.6057  23.6192  24.3228  24.4295
    24.5630  24.6373  26.3106  26.4287  26.5105  26.7202  26.7896  26.9371
    27.0387  27.3136  28.8596

          k = 0.3373 0.1405 0.0000 (  4424 PWs)   bands (ev):

   -58.6829 -58.6789 -25.6271 -25.6253 -25.6227 -25.6221 -25.6196 -25.6143
   -13.6680 -13.5058 -13.1134 -12.7855 -12.4333 -12.3422   1.7704   2.0950
     3.4640   3.5490   3.7558   4.1425   4.5751   4.7377   5.0518   5.1063
     5.3804   5.5270   5.5399   5.7692   5.7815   5.8662   7.3544   7.8945
    15.1685  15.2241  15.2555  15.3720  15.5196  15.5267  15.5871  15.6283
    15.6460  15.8190  18.4100  18.7408  21.1530  21.3988  21.4311  22.2907
    22.6036  22.7260  22.8230  23.4464  23.4810  23.7642  23.7900  24.1660
    24.4902  24.5473  25.3972  25.7033  26.0597  26.6674  27.2370  27.3498
    27.7573  28.3364  29.0917

          k = 0.3373 0.1405 0.1205 (  4421 PWs)   bands (ev):

   -58.6823 -58.6789 -25.6287 -25.6243 -25.6243 -25.6180 -25.6171 -25.6162
   -13.6321 -13.4809 -13.1196 -12.7889 -12.4348 -12.4106   1.9949   2.1033
     3.4288   3.6426   3.8044   4.1313   4.3711   4.9000   4.9545   5.2292
     5.3187   5.3608   5.7109   5.7522   5.8004   5.8256   7.3526   7.4889
    15.1784  15.1940  15.3192  15.3884  15.4906  15.5035  15.5335  15.5562
    15.6910  15.7333  18.5068  18.8783  21.2458  21.5431  21.6286  22.3501
    22.5606  22.7193  23.2675  23.4715  23.5329  23.6203  23.9122  24.4718
    24.5046  24.5516  25.0844  25.5920  26.4918  26.5876  26.7459  26.9740
    27.8979  28.7396  29.0110

          k = 0.3373 0.1405 0.2409 (  4429 PWs)   bands (ev):

   -58.6829 -58.6821 -25.6303 -25.6274 -25.6236 -25.6234 -25.6184 -25.6169
   -13.5565 -13.3930 -13.1300 -12.8017 -12.5908 -12.4373   2.0894   2.6666
     3.4159   3.7840   3.9079   4.0576   4.2621   4.8541   4.9210   5.1883
     5.2836   5.3870   5.6705   5.7739   5.8082   5.8652   6.4933   7.3491
    15.1463  15.1993  15.3271  15.3476  15.4251  15.4470  15.4950  15.5309
    15.5737  15.7594  18.7884  19.2032  21.3883  21.8915  22.0156  22.0557
    22.7456  22.9993  23.2011  23.4500  23.8033  23.9649  24.1025  24.5095
    24.7097  24.9666  25.2678  25.6270  26.1779  26.3783  26.4471  26.9003
    27.6086  28.1523  28.8556

          k = 0.3373 0.1405 0.3614 (  4435 PWs)   bands (ev):

   -58.6847 -58.6831 -25.6301 -25.6284 -25.6272 -25.6213 -25.6211 -25.6204
   -13.5058 -13.2775 -13.0804 -12.8892 -12.7498 -12.4399   2.0942   3.3852
     3.5709   3.9033   3.9544   4.0109   4.4188   4.7273   4.8149   4.9954
     5.1375   5.3879   5.5401   5.6420   5.8221   5.8380   5.9062   7.3451
    15.0850  15.1537  15.2169  15.3125  15.4076  15.4352  15.4443  15.5716
    15.5768  15.7985  19.1904  19.4193  21.1123  21.7333  22.3138  22.6381
    23.0630  23.1273  23.3841  23.5151  23.6080  23.9458  24.1357  24.4134
    24.6521  24.7797  25.2333  25.9669  26.5420  26.6464  26.9536  27.0936
    27.5133  27.7184  28.5139

          k = 0.3373 0.2811 0.0000 (  4432 PWs)   bands (ev):

   -58.6854 -58.6806 -25.6288 -25.6285 -25.6279 -25.6213 -25.6196 -25.6174
   -13.5989 -13.3745 -13.1171 -12.8140 -12.6498 -12.3438   1.7745   2.9485
     3.4625   3.6818   3.9764   4.0351   4.5521   4.5696   4.7757   5.1446
     5.2739   5.4704   5.6685   5.7779   5.8802   5.9397   6.1096   7.8848
    15.1343  15.1409  15.2079  15.3605  15.3688  15.4433  15.5805  15.5808
    15.5895  15.8771  18.7723  19.1296  21.0618  21.7395  22.1095  22.2042
    22.5697  22.9207  23.2533  23.2829  23.4858  23.7572  24.0967  24.4303
    24.6356  25.0594  25.6212  26.2795  26.4571  26.6104  26.8332  26.9623
    26.9967  27.2461  29.0716

          k = 0.3373 0.2811 0.1205 (  4433 PWs)   bands (ev):

   -58.6834 -58.6832 -25.6310 -25.6297 -25.6240 -25.6237 -25.6185 -25.6181
   -13.5514 -13.3564 -13.1246 -12.8130 -12.6575 -12.4141   2.0085   2.9526
     3.4252   3.8047   3.9442   4.0100   4.3267   4.7995   4.8420   5.1744
     5.2642   5.4101   5.6458   5.7874   5.8279   5.8936   6.1231   7.4827
    15.1244  15.1747  15.2786  15.3305  15.4142  15.4543  15.4753  15.5532
    15.5716  15.8025  18.8781  19.2635  21.2689  21.7695  22.1737  22.2225
    22.8686  23.0638  23.1577  23.3516  23.7374  23.9252  24.0317  24.4996
    24.6890  25.1244  25.5241  25.7531  26.2500  26.3706  26.5219  26.9698
    27.4065  27.8546  28.8144

          k = 0.3373 0.2811 0.2409 (  4437 PWs)   bands (ev):

   -58.6857 -58.6833 -25.6290 -25.6289 -25.6254 -25.6240 -25.6239 -25.6200
   -13.4273 -13.2975 -13.1457 -12.8114 -12.6773 -12.5997   2.6693   2.9653
     3.4065   3.8412   3.8473   4.1186   4.2786   4.8804   5.0585   5.1626
     5.1933   5.3860   5.5820   5.7095   5.7759   5.8016   6.1275   6.4957
    15.1493  15.2074  15.2792  15.3342  15.4126  15.4580  15.4829  15.4988
    15.5455  15.6088  19.1938  19.6067  21.6699  21.8464  22.2640  22.3279
    22.6307  23.1693  23.2461  23.3376  24.1343  24.4228  24.5113  24.5570
    24.9891  25.3161  25.4253  25.5144  25.8036  26.2018  26.3679  26.7949
    27.6468  27.8919  28.6871

          k = 0.3373 0.2811 0.3614 (  4441 PWs)   bands (ev):

   -58.6878 -58.6830 -25.6330 -25.6269 -25.6249 -25.6248 -25.6241 -25.6229
   -13.3195 -13.2147 -13.1056 -12.8760 -12.7914 -12.6851   2.9747   3.4152
     3.5758   3.7371   3.8197   4.2554   4.4391   4.8840   4.9213   5.1183
     5.1883   5.3369   5.4941   5.5848   5.6807   5.7075   5.7349   6.1197
    15.1609  15.1988  15.2497  15.3319  15.3771  15.4731  15.4804  15.4924
    15.5188  15.5585  19.6526  19.8935  21.6585  21.7202  22.3065  22.5243
    22.6303  22.8563  23.5169  23.5660  24.1496  24.2300  24.2828  24.4201
    25.3467  25.4434  25.7408  25.8854  26.1420  26.2437  26.7392  27.0700
    27.7395  27.8810  28.4916

          k = 0.3373-0.4216 0.0000 (  4424 PWs)   bands (ev):

   -58.6816 -58.6816 -25.6277 -25.6275 -25.6221 -25.6219 -25.6180 -25.6179
   -13.5682 -13.2808 -13.0083 -12.9760 -12.7440 -12.3444   1.7777   3.4029
     3.7460   3.7717   4.0705   4.4062   4.5046   4.5323   4.5870   4.6336
     5.0675   5.4384   5.4997   5.6456   5.8779   5.9101   5.9824   7.8797
    15.0477  15.0832  15.1209  15.3038  15.4076  15.4178  15.5572  15.6130
    15.6171  15.8984  19.1852  19.1859  20.7418  21.8403  22.5127  22.6871
    22.7242  22.8448  23.1686  23.2585  23.5646  23.6938  24.2638  24.4252
    24.5446  24.5975  26.1658  26.3868  26.4587  26.6505  26.9059  27.0444
    27.1650  28.1540  28.2677

          k = 0.3373-0.4216 0.1205 (  4432 PWs)   bands (ev):

   -58.6834 -58.6834 -25.6284 -25.6282 -25.6236 -25.6234 -25.6209 -25.6207
   -13.5171 -13.2665 -13.0065 -12.9784 -12.7570 -12.4154   2.0120   3.3994
     3.7420   3.8438   3.9839   4.2538   4.4907   4.6055   4.6908   4.7597
     5.1089   5.3968   5.5016   5.6276   5.8377   5.8607   5.9282   7.4790
    15.0703  15.1221  15.1794  15.3082  15.4192  15.4370  15.4483  15.5867
    15.5903  15.8285  19.3107  19.3126  20.9665  21.7625  22.3497  22.7446
    23.0581  23.1038  23.2713  23.4605  23.7625  23.9794  24.1552  24.3319
    24.4119  24.7015  25.2108  26.0676  26.6583  26.9066  27.0062  27.0293
    27.5216  28.2888  28.3692

          k = 0.3373-0.4216 0.2409 (  4450 PWs)   bands (ev):

   -58.6875 -58.6873 -25.6323 -25.6322 -25.6271 -25.6271 -25.6245 -25.6245
   -13.3704 -13.2302 -13.0026 -12.9876 -12.7871 -12.6064   2.6776   3.4100
     3.7037   3.7767   4.0483   4.1516   4.5182   4.6406   4.8767   4.9688
     5.2035   5.3009   5.5058   5.5641   5.7238   5.7396   5.7754   6.4926
    15.1434  15.1991  15.2606  15.2727  15.3538  15.4561  15.4707  15.5279
    15.5368  15.6356  19.6765  19.6786  21.4525  21.6834  22.2400  22.6807
    23.0191  23.0334  23.4708  23.5004  24.0803  24.1846  24.2910  24.4309
    24.8922  25.1448  25.1997  25.8876  26.4622  26.5246  26.8662  27.0223
    28.1816  28.2189  28.4810

          k = 0.3373-0.4216 0.3614 (  4438 PWs)   bands (ev):

   -58.6843 -58.6841 -25.6278 -25.6277 -25.6265 -25.6264 -25.6217 -25.6217
   -13.1927 -13.1517 -13.0028 -13.0000 -12.8583 -12.8106   3.4406   3.5951
     3.6474   3.7064   4.1471   4.1579   4.5252   4.6070   5.0478   5.0900
     5.2391   5.2644   5.4582   5.4671   5.5649   5.5707   5.5744   5.6510
    15.2134  15.2146  15.2785  15.2844  15.3797  15.4335  15.4838  15.4852
    15.5036  15.5061  20.1582  20.1583  21.7271  21.7406  22.1971  22.3271
    22.4189  22.4333  23.8299  23.8423  24.0943  24.1368  24.1561  24.2243
    25.6484  25.6770  26.0353  26.0722  26.5740  26.7156  26.9967  27.1638
    28.0147  28.1217  28.5521

     the Fermi energy is    24.6124 ev

!    total energy              =    -983.87377684 Ry
     Harris-Foulkes estimate   =    -983.87377717 Ry
     estimated scf accuracy    <       0.00000042 Ry

     The total energy is the sum of the following terms:

     one-electron contribution =     -79.07193726 Ry
     hartree contribution      =     127.38390086 Ry
     xc contribution           =    -111.05242583 Ry
     ewald contribution        =    -920.69016220 Ry
     smearing contrib. (-TS)   =      -0.44315242 Ry

     convergence has been achieved in  12 iterations

     Forces acting on atoms (Ry/au):

     atom    1 type  1   force =     0.00000000    0.00000000    0.00000000
     atom    2 type  1   force =     0.00000000    0.00000000    0.00000000
     atom    3 type  1   force =     0.00000000    0.00000000    0.00000000
     atom    4 type  1   force =     0.00000000    0.00000000    0.00000000
     atom    5 type  1   force =     0.00000000    0.00000000    0.00000000
     atom    6 type  1   force =     0.00000000    0.00000000    0.00000000
     atom    7 type  2   force =     0.00000000    0.00000000    0.00000000
     atom    8 type  2   force =     0.00000000    0.00000000    0.00000000

     Total force =     0.000000     Total SCF correction =     0.000000


     entering subroutine stress ...

          total   stress  (Ry/bohr**3)                   (kbar)     P=  595.48
   0.00404800   0.00000000   0.00000000        595.48      0.00      0.00
   0.00000000   0.00404800   0.00000000          0.00    595.48      0.00
   0.00000000   0.00000000   0.00404800          0.00      0.00    595.48


     Writing output data file Prototype-La-cP8-Cr3Si.save
 
     init_run     :      5.42s CPU      7.22s WALL (       2 calls)
     electrons    :   1161.16s CPU   1417.84s WALL (       5 calls)
     update_pot   :      1.36s CPU      1.39s WALL (       3 calls)
     forces       :      4.68s CPU      5.18s WALL (       5 calls)
     stress       :     12.96s CPU     13.40s WALL (       5 calls)

     Called by init_run:
     wfcinit      :      4.90s CPU      6.64s WALL (       2 calls)
     potinit      :      0.20s CPU      0.22s WALL (       2 calls)

     Called by electrons:
     c_bands      :   1125.00s CPU   1349.77s WALL (      51 calls)
     sum_band     :     35.75s CPU     49.43s WALL (      51 calls)
     v_of_rho     :      0.07s CPU      0.08s WALL (      56 calls)
     mix_rho      :      0.07s CPU      0.09s WALL (      51 calls)

     Called by c_bands:
     init_us_2    :      3.00s CPU      4.08s WALL (    5472 calls)
     ccgdiagg     :   1008.90s CPU   1193.92s WALL (    2757 calls)
     wfcrot       :    117.84s CPU    155.78s WALL (    2805 calls)

     Called by *cgdiagg:
     h_psi        :    808.45s CPU   1006.55s WALL (  943234 calls)
     cdiaghg      :      5.28s CPU      5.74s WALL (    2805 calls)

     Called by h_psi:
     add_vuspsi   :    100.31s CPU    125.55s WALL (  943234 calls)

     General routines
     calbec       :    282.83s CPU    293.27s WALL ( 1884143 calls)
     fft          :      0.09s CPU      0.11s WALL (     247 calls)
     fftw         :    524.80s CPU    665.14s WALL ( 2420744 calls)
     davcio       :      1.95s CPU      5.38s WALL (    7920 calls)
 
     Parallel routines
     fft_scatter  :    223.22s CPU    278.93s WALL ( 2420991 calls)
 
     PWSCF        : 19m46.26s CPU    24m 6.38s WALL

 
   This run was terminated on:   0:56:22  22Mar2018            

=------------------------------------------------------------------------------=
   JOB DONE.
=------------------------------------------------------------------------------=
