
     Program PWSCF v.5.0.2 starts on 22Mar2018 at  0:32:17 

     This program is part of the open-source Quantum ESPRESSO suite
     for quantum simulation of materials; please cite
         "P. Giannozzi et al., J. Phys.:Condens. Matter 21 395502 (2009);
          URL http://www.quantum-espresso.org", 
     in publications or presentations arising from this work. More details at
     http://www.quantum-espresso.org/quote.php

     Parallel version (MPI), running on     4 processors
     R & G space division:  proc/nbgrp/npool/nimage =       4

     Current dimensions of program PWSCF are:
     Max number of different atomic species (ntypx) = 10
     Max number of k-points (npk) =  40000
     Max angular momentum in pseudopotentials (lmaxx) =  3
     Waiting for input...
     Reading input from standard input

     Subspace diagonalization in iterative solution of the eigenvalue problem:
     a serial algorithm will be used

 
     Parallelization info
     --------------------
     sticks:   dense  smooth     PW     G-vecs:    dense   smooth      PW
     Min          93      93     30                 1717     1717     310
     Max          94      94     31                 1720     1720     313
     Sum         373     373    121                 6871     6871    1247
 


     bravais-lattice index     =            0
     lattice parameter (alat)  =       5.4125  a.u.
     unit-cell volume          =     202.7222 (a.u.)^3
     number of atoms/cell      =            2
     number of atomic types    =            2
     number of electrons       =        32.00
     number of Kohn-Sham states=           20
     kinetic-energy cutoff     =      40.0000  Ry
     charge density cutoff     =     160.0000  Ry
     convergence threshold     =      1.0E-04
     mixing beta               =       0.7000
     number of iterations used =            8  plain     mixing
     Exchange-correlation      = SLA-PZ-NOGX-NOGC ( 1 1 0 0 0)
     EXX-fraction              =        0.00
     nstep                     =           50


     celldm(1)=   5.412493  celldm(2)=   0.000000  celldm(3)=   0.000000
     celldm(4)=   0.000000  celldm(5)=   0.000000  celldm(6)=   0.000000

     crystal axes: (cart. coord. in units of alat)
               a(1) = (   1.000000   0.000000   0.000000 )  
               a(2) = (   0.000000   1.000000   0.000000 )  
               a(3) = (   0.000000   0.000000   1.278525 )  

     reciprocal axes: (cart. coord. in units 2 pi/alat)
               b(1) = (  1.000000  0.000000  0.000000 )  
               b(2) = (  0.000000  1.000000  0.000000 )  
               b(3) = (  0.000000  0.000000  0.782151 )  


     PseudoPot. # 1 for Ce read from file:
     /home/jld5415/pp.La/Ce.UPF
     MD5 check sum: 44451aa79a44a00cf2bc029dc19922f6
     Pseudo is Norm-conserving, Zval = 12.0
     Generated in analytical, separable form
     Using radial grid of 1255 points,  6 beta functions with: 
                l(1) =   0
                l(2) =   0
                l(3) =   1
                l(4) =   1
                l(5) =   2
                l(6) =   3

     PseudoPot. # 2 for Dy read from file:
     /home/jld5415/pp.La/Dy.UPF
     MD5 check sum: 9597327bec62616a94a14d07f3fd9936
     Pseudo is Norm-conserving, Zval = 20.0
     Generated in analytical, separable form
     Using radial grid of 1265 points,  6 beta functions with: 
                l(1) =   0
                l(2) =   0
                l(3) =   1
                l(4) =   1
                l(5) =   2
                l(6) =   3

     atomic species   valence    mass     pseudopotential
        Cu            12.00    63.54600     Ce( 1.00)
        Au            20.00   196.96600     Dy( 1.00)

     16 Sym. Ops., with inversion, found



   Cartesian axes

     site n.     atom                  positions (alat units)
         1           Cu  tau(   1) = (   0.5000000   0.5000000   0.6392626  )
         2           Au  tau(   2) = (   0.0000000   0.0000000   0.0000000  )

     number of k points=   100  gaussian smearing, width (Ry)=  0.1000

     Number of k-points >= 100: set verbosity='high' to print them.

     Dense  grid:     6871 G-vectors     FFT dimensions: (  24,  24,  27)

     Largest allocated arrays     est. size (Mb)     dimensions
        Kohn-Sham Wavefunctions         0.07 Mb     (    228,   20)
        NL pseudopotentials             0.14 Mb     (    228,   40)
        Each V/rho on FFT grid          0.06 Mb     (   4032)
        Each G-vector array             0.01 Mb     (   1720)
        G-vector shells                 0.01 Mb     (   1720)
     Largest temporary arrays     est. size (Mb)     dimensions
        Each subspace H/S matrix        0.01 Mb     (  20,  20)
        Each <psi_i|beta_j> matrix      0.01 Mb     (     40,   20)
        Arrays for rho mixing           0.49 Mb     (   4032,   8)

     Initial potential from superposition of free atoms

     Starting from uniform charge
     Starting wfc are    0 randomized atomic wfcs

     total cpu time spent up to now is        0.6 secs

     Self-consistent Calculation

     iteration #  1     ecut=    40.00 Ry     beta=0.70
     CG style diagonalization
     c_bands:  1 eigenvalues not converged
     c_bands:  1 eigenvalues not converged
     c_bands:  1 eigenvalues not converged
     c_bands:  1 eigenvalues not converged
     c_bands:  1 eigenvalues not converged
     c_bands:  1 eigenvalues not converged
     c_bands:  1 eigenvalues not converged
     c_bands:  1 eigenvalues not converged
     c_bands:  1 eigenvalues not converged
     c_bands:  1 eigenvalues not converged
     c_bands:  1 eigenvalues not converged
     c_bands:  1 eigenvalues not converged
     c_bands:  2 eigenvalues not converged
     c_bands:  1 eigenvalues not converged
     c_bands:  2 eigenvalues not converged
     c_bands:  2 eigenvalues not converged
     c_bands:  1 eigenvalues not converged
     c_bands:  1 eigenvalues not converged
     c_bands:  2 eigenvalues not converged
     c_bands:  2 eigenvalues not converged
     c_bands:  1 eigenvalues not converged
     c_bands:  1 eigenvalues not converged
     c_bands:  3 eigenvalues not converged
     ethr =  1.00E-02,  avg # of iterations = 12.6

     total cpu time spent up to now is        5.4 secs

     total energy              =    -155.29838800 Ry
     Harris-Foulkes estimate   =    -429.41955895 Ry
     estimated scf accuracy    <     333.23543746 Ry

     iteration #  2     ecut=    40.00 Ry     beta=0.70
     CG style diagonalization
     c_bands:  1 eigenvalues not converged
     c_bands:  1 eigenvalues not converged
     c_bands:  1 eigenvalues not converged
     c_bands:  1 eigenvalues not converged
     c_bands:  1 eigenvalues not converged
     c_bands:  1 eigenvalues not converged
     c_bands:  1 eigenvalues not converged
     c_bands:  1 eigenvalues not converged
     c_bands:  1 eigenvalues not converged
     c_bands:  1 eigenvalues not converged
     c_bands:  2 eigenvalues not converged
     c_bands:  2 eigenvalues not converged
     c_bands:  1 eigenvalues not converged
     c_bands:  1 eigenvalues not converged
     c_bands:  1 eigenvalues not converged
     c_bands:  1 eigenvalues not converged
     c_bands:  1 eigenvalues not converged
     c_bands:  1 eigenvalues not converged
     c_bands:  1 eigenvalues not converged
     c_bands:  2 eigenvalues not converged
     c_bands:  1 eigenvalues not converged
     c_bands:  1 eigenvalues not converged
     c_bands:  1 eigenvalues not converged
     c_bands:  1 eigenvalues not converged
     c_bands:  2 eigenvalues not converged
     c_bands:  1 eigenvalues not converged
     c_bands:  1 eigenvalues not converged
     c_bands:  1 eigenvalues not converged
     c_bands:  1 eigenvalues not converged
     c_bands:  1 eigenvalues not converged
     c_bands:  2 eigenvalues not converged
     c_bands:  1 eigenvalues not converged
     c_bands:  1 eigenvalues not converged
     c_bands:  1 eigenvalues not converged
     c_bands:  2 eigenvalues not converged
     c_bands:  1 eigenvalues not converged
     c_bands:  1 eigenvalues not converged
     c_bands:  2 eigenvalues not converged
     c_bands:  1 eigenvalues not converged
     c_bands:  1 eigenvalues not converged
     c_bands:  1 eigenvalues not converged
     c_bands:  1 eigenvalues not converged
     c_bands:  3 eigenvalues not converged
     ethr =  1.00E-02,  avg # of iterations = 13.3

     total cpu time spent up to now is       10.2 secs

     total energy              =    -257.47597445 Ry
     Harris-Foulkes estimate   =    -484.29717067 Ry
     estimated scf accuracy    <     455.72055542 Ry

     iteration #  3     ecut=    40.00 Ry     beta=0.70
     CG style diagonalization
     c_bands:  1 eigenvalues not converged
     c_bands:  1 eigenvalues not converged
     ethr =  1.00E-02,  avg # of iterations = 11.5

     total cpu time spent up to now is       14.4 secs

     total energy              =    -336.14590684 Ry
     Harris-Foulkes estimate   =    -342.50350746 Ry
     estimated scf accuracy    <      11.59075514 Ry

     iteration #  4     ecut=    40.00 Ry     beta=0.70
     CG style diagonalization
     ethr =  1.00E-02,  avg # of iterations =  4.1

     total cpu time spent up to now is       16.0 secs

     total energy              =    -337.01649178 Ry
     Harris-Foulkes estimate   =    -337.58450211 Ry
     estimated scf accuracy    <       1.23888218 Ry

     iteration #  5     ecut=    40.00 Ry     beta=0.70
     CG style diagonalization
     ethr =  3.87E-03,  avg # of iterations =  3.4

     negative rho (up, down):  0.491E-04 0.000E+00

     total cpu time spent up to now is       17.2 secs

     total energy              =    -337.05229144 Ry
     Harris-Foulkes estimate   =    -337.17780062 Ry
     estimated scf accuracy    <       0.18065318 Ry

     iteration #  6     ecut=    40.00 Ry     beta=0.70
     CG style diagonalization
     c_bands:  1 eigenvalues not converged
     ethr =  5.65E-04,  avg # of iterations =  4.9

     total cpu time spent up to now is       19.0 secs

     total energy              =    -337.11433777 Ry
     Harris-Foulkes estimate   =    -337.19282672 Ry
     estimated scf accuracy    <       0.11843176 Ry

     iteration #  7     ecut=    40.00 Ry     beta=0.70
     CG style diagonalization
     ethr =  3.70E-04,  avg # of iterations =  3.7

     total cpu time spent up to now is       20.4 secs

     total energy              =    -337.13708728 Ry
     Harris-Foulkes estimate   =    -337.13748392 Ry
     estimated scf accuracy    <       0.00083933 Ry

     iteration #  8     ecut=    40.00 Ry     beta=0.70
     CG style diagonalization
     c_bands:  1 eigenvalues not converged
     c_bands:  1 eigenvalues not converged
     c_bands:  2 eigenvalues not converged
     c_bands:  1 eigenvalues not converged
     c_bands:  1 eigenvalues not converged
     c_bands:  1 eigenvalues not converged
     c_bands:  1 eigenvalues not converged
     c_bands:  1 eigenvalues not converged
     c_bands:  1 eigenvalues not converged
     c_bands:  1 eigenvalues not converged
     c_bands:  1 eigenvalues not converged
     c_bands:  1 eigenvalues not converged
     c_bands:  1 eigenvalues not converged
     c_bands:  1 eigenvalues not converged
     c_bands:  1 eigenvalues not converged
     c_bands:  2 eigenvalues not converged
     c_bands:  1 eigenvalues not converged
     c_bands:  1 eigenvalues not converged
     c_bands:  1 eigenvalues not converged
     c_bands:  1 eigenvalues not converged
     c_bands:  1 eigenvalues not converged
     c_bands:  1 eigenvalues not converged
     ethr =  2.62E-06,  avg # of iterations =  5.9

     total cpu time spent up to now is       22.5 secs

     total energy              =    -337.13827409 Ry
     Harris-Foulkes estimate   =    -337.13833288 Ry
     estimated scf accuracy    <       0.00028455 Ry

     iteration #  9     ecut=    40.00 Ry     beta=0.70
     CG style diagonalization
     c_bands:  1 eigenvalues not converged
     ethr =  8.89E-07,  avg # of iterations =  3.2

     total cpu time spent up to now is       23.8 secs

     total energy              =    -337.13817550 Ry
     Harris-Foulkes estimate   =    -337.13829206 Ry
     estimated scf accuracy    <       0.00018830 Ry

     iteration # 10     ecut=    40.00 Ry     beta=0.70
     CG style diagonalization
     ethr =  5.88E-07,  avg # of iterations =  3.6

     total cpu time spent up to now is       25.1 secs

     End of self-consistent calculation

     Number of k-points >= 100: set verbosity='high' to print the bands.

     the Fermi energy is    33.6841 ev

!    total energy              =    -337.13820882 Ry
     Harris-Foulkes estimate   =    -337.13820998 Ry
     estimated scf accuracy    <       0.00000145 Ry

     The total energy is the sum of the following terms:

     one-electron contribution =     -14.58359526 Ry
     hartree contribution      =      40.37852585 Ry
     xc contribution           =     -35.29051132 Ry
     ewald contribution        =    -327.57622706 Ry
     smearing contrib. (-TS)   =      -0.06640105 Ry

     convergence has been achieved in  10 iterations

     Forces acting on atoms (Ry/au):

     atom    1 type  1   force =     0.00000000    0.00000000    0.00000000
     atom    2 type  2   force =     0.00000000    0.00000000    0.00000000

     Total force =     0.000000     Total SCF correction =     0.000000


     entering subroutine stress ...

          total   stress  (Ry/bohr**3)                   (kbar)     P= 1757.39
   0.01114268   0.00000000   0.00000000       1639.14      0.00      0.00
   0.00000000   0.01114268   0.00000000          0.00   1639.14      0.00
   0.00000000   0.00000000   0.01355417          0.00      0.00   1993.89


     BFGS Geometry Optimization

     number of scf cycles    =   1
     number of bfgs steps    =   0

     enthalpy new            =    -337.1382088236 Ry

     new trust radius        =       0.5000000000 bohr
     new conv_thr            =       0.0001000000 Ry

     new unit-cell volume =    312.08336 a.u.^3 (    46.24598 Ang^3 )

CELL_PARAMETERS (alat=  5.41249258)
   1.144346473   0.000000000   0.000000000
   0.000000000   1.144346473   0.000000000
   0.000000000   0.000000000   1.503015978

ATOMIC_POSITIONS (crystal)
Cu       0.500000000   0.500000000   0.500000000
Au       0.000000000   0.000000000   0.000000000



     Writing output data file Prototype-La-tP2-AuCu.save
     NEW-OLD atomic charge density approx. for the potential
     NEW k-points: (use verbosity='high' to print them)

     total cpu time spent up to now is       27.0 secs

     Self-consistent Calculation

     iteration #  1     ecut=    40.00 Ry     beta=0.70
     CG style diagonalization
     c_bands:  2 eigenvalues not converged
     c_bands:  3 eigenvalues not converged
     c_bands:  2 eigenvalues not converged
     c_bands:  3 eigenvalues not converged
     c_bands:  4 eigenvalues not converged
     c_bands:  5 eigenvalues not converged
     c_bands:  4 eigenvalues not converged
     c_bands:  1 eigenvalues not converged
     c_bands:  5 eigenvalues not converged
     c_bands:  5 eigenvalues not converged
     c_bands:  5 eigenvalues not converged
     c_bands:  1 eigenvalues not converged
     c_bands:  5 eigenvalues not converged
     c_bands:  5 eigenvalues not converged
     c_bands:  4 eigenvalues not converged
     c_bands:  1 eigenvalues not converged
     c_bands:  2 eigenvalues not converged
     c_bands:  1 eigenvalues not converged
     c_bands:  2 eigenvalues not converged
     c_bands:  5 eigenvalues not converged
     c_bands:  4 eigenvalues not converged
     c_bands:  4 eigenvalues not converged
     c_bands:  5 eigenvalues not converged
     c_bands:  5 eigenvalues not converged
     c_bands:  3 eigenvalues not converged
     c_bands:  3 eigenvalues not converged
     c_bands:  1 eigenvalues not converged
     c_bands:  4 eigenvalues not converged
     c_bands:  5 eigenvalues not converged
     c_bands:  2 eigenvalues not converged
     c_bands:  4 eigenvalues not converged
     c_bands:  3 eigenvalues not converged
     c_bands:  1 eigenvalues not converged
     c_bands:  3 eigenvalues not converged
     c_bands:  2 eigenvalues not converged
     c_bands:  5 eigenvalues not converged
     c_bands:  4 eigenvalues not converged
     c_bands:  4 eigenvalues not converged
     c_bands:  4 eigenvalues not converged
     c_bands:  4 eigenvalues not converged
     c_bands:  4 eigenvalues not converged
     c_bands:  1 eigenvalues not converged
     c_bands:  3 eigenvalues not converged
     c_bands:  3 eigenvalues not converged
     c_bands:  3 eigenvalues not converged
     c_bands:  1 eigenvalues not converged
     c_bands:  1 eigenvalues not converged
     c_bands:  4 eigenvalues not converged
     c_bands:  5 eigenvalues not converged
     c_bands:  4 eigenvalues not converged
     c_bands:  2 eigenvalues not converged
     c_bands:  4 eigenvalues not converged
     c_bands:  4 eigenvalues not converged
     c_bands:  5 eigenvalues not converged
     c_bands:  5 eigenvalues not converged
     c_bands:  4 eigenvalues not converged
     c_bands:  2 eigenvalues not converged
     c_bands:  2 eigenvalues not converged
     c_bands:  2 eigenvalues not converged
     c_bands:  2 eigenvalues not converged
     ethr =  1.00E-06,  avg # of iterations = 17.6

     total cpu time spent up to now is       33.3 secs

     total energy              =    -332.50538276 Ry
     Harris-Foulkes estimate   =    -344.09172528 Ry
     estimated scf accuracy    <      14.73751616 Ry

     iteration #  2     ecut=    40.00 Ry     beta=0.70
     CG style diagonalization
     ethr =  1.00E-02,  avg # of iterations =  4.4

     total cpu time spent up to now is       34.9 secs

     total energy              =    -332.15300293 Ry
     Harris-Foulkes estimate   =    -339.26124853 Ry
     estimated scf accuracy    <      12.64566189 Ry

     iteration #  3     ecut=    40.00 Ry     beta=0.70
     CG style diagonalization
     ethr =  1.00E-02,  avg # of iterations =  4.3

     total cpu time spent up to now is       36.5 secs

     total energy              =    -337.26426475 Ry
     Harris-Foulkes estimate   =    -338.35885813 Ry
     estimated scf accuracy    <       2.72020171 Ry

     iteration #  4     ecut=    40.00 Ry     beta=0.70
     CG style diagonalization
     ethr =  8.50E-03,  avg # of iterations =  3.2

     total cpu time spent up to now is       37.7 secs

     total energy              =    -337.38710804 Ry
     Harris-Foulkes estimate   =    -337.50993349 Ry
     estimated scf accuracy    <       0.46705244 Ry

     iteration #  5     ecut=    40.00 Ry     beta=0.70
     CG style diagonalization
     ethr =  1.46E-03,  avg # of iterations =  3.3

     total cpu time spent up to now is       38.9 secs

     total energy              =    -337.36978282 Ry
     Harris-Foulkes estimate   =    -337.42467260 Ry
     estimated scf accuracy    <       0.16421050 Ry

     iteration #  6     ecut=    40.00 Ry     beta=0.70
     CG style diagonalization
     ethr =  5.13E-04,  avg # of iterations =  3.6

     total cpu time spent up to now is       40.2 secs

     total energy              =    -337.38733577 Ry
     Harris-Foulkes estimate   =    -337.39772968 Ry
     estimated scf accuracy    <       0.01810719 Ry

     iteration #  7     ecut=    40.00 Ry     beta=0.70
     CG style diagonalization
     c_bands:  1 eigenvalues not converged
     ethr =  5.66E-05,  avg # of iterations =  4.1

     total cpu time spent up to now is       41.7 secs

     total energy              =    -337.39422832 Ry
     Harris-Foulkes estimate   =    -337.39548463 Ry
     estimated scf accuracy    <       0.00217943 Ry

     iteration #  8     ecut=    40.00 Ry     beta=0.70
     CG style diagonalization
     c_bands:  1 eigenvalues not converged
     ethr =  6.81E-06,  avg # of iterations =  3.8

     total cpu time spent up to now is       43.1 secs

     End of self-consistent calculation

     Number of k-points >= 100: set verbosity='high' to print the bands.

     the Fermi energy is    20.7122 ev

!    total energy              =    -337.39474591 Ry
     Harris-Foulkes estimate   =    -337.39476852 Ry
     estimated scf accuracy    <       0.00002216 Ry

     The total energy is the sum of the following terms:

     one-electron contribution =     -77.42393198 Ry
     hartree contribution      =      57.68746198 Ry
     xc contribution           =     -33.99080373 Ry
     ewald contribution        =    -283.56806113 Ry
     smearing contrib. (-TS)   =      -0.09941105 Ry

     convergence has been achieved in   8 iterations

     Forces acting on atoms (Ry/au):

     atom    1 type  1   force =     0.00000000    0.00000000    0.00000000
     atom    2 type  2   force =     0.00000000    0.00000000    0.00000000

     Total force =     0.000000     Total SCF correction =     0.000000


     entering subroutine stress ...

          total   stress  (Ry/bohr**3)                   (kbar)     P= -443.74
  -0.00305442   0.00000000   0.00000000       -449.32      0.00      0.00
   0.00000000  -0.00305442   0.00000000          0.00   -449.32      0.00
   0.00000000   0.00000000  -0.00294058          0.00      0.00   -432.57


     number of scf cycles    =   2
     number of bfgs steps    =   1

     enthalpy old            =    -337.1382088236 Ry
     enthalpy new            =    -337.3947459116 Ry

     CASE: enthalpy_new < enthalpy_old

     small trust_radius: resetting bfgs history

     new trust radius        =       0.2697952995 bohr
     new conv_thr            =       0.0000010000 Ry

     new unit-cell volume =    246.66877 a.u.^3 (    36.55254 Ang^3 )

CELL_PARAMETERS (alat=  5.41249258)
   1.056963540   0.000000000   0.000000000
   0.000000000   1.056963540   0.000000000
   0.000000000   0.000000000   1.392522475

ATOMIC_POSITIONS (crystal)
Cu       0.500000000   0.500000000   0.500000000
Au       0.000000000   0.000000000   0.000000000



     Writing output data file Prototype-La-tP2-AuCu.save
     NEW-OLD atomic charge density approx. for the potential
     NEW k-points: (use verbosity='high' to print them)

     total cpu time spent up to now is       44.0 secs

     Self-consistent Calculation

     iteration #  1     ecut=    40.00 Ry     beta=0.70
     CG style diagonalization
     c_bands:  1 eigenvalues not converged
     c_bands:  3 eigenvalues not converged
     c_bands:  1 eigenvalues not converged
     c_bands:  3 eigenvalues not converged
     c_bands:  1 eigenvalues not converged
     c_bands:  2 eigenvalues not converged
     c_bands:  2 eigenvalues not converged
     c_bands:  1 eigenvalues not converged
     c_bands:  1 eigenvalues not converged
     c_bands:  2 eigenvalues not converged
     c_bands:  2 eigenvalues not converged
     c_bands:  2 eigenvalues not converged
     c_bands:  3 eigenvalues not converged
     c_bands:  1 eigenvalues not converged
     c_bands:  1 eigenvalues not converged
     c_bands:  1 eigenvalues not converged
     c_bands:  2 eigenvalues not converged
     c_bands:  2 eigenvalues not converged
     c_bands:  1 eigenvalues not converged
     c_bands:  4 eigenvalues not converged
     c_bands:  4 eigenvalues not converged
     c_bands:  4 eigenvalues not converged
     c_bands:  4 eigenvalues not converged
     c_bands:  5 eigenvalues not converged
     c_bands:  1 eigenvalues not converged
     c_bands:  4 eigenvalues not converged
     c_bands:  1 eigenvalues not converged
     c_bands:  2 eigenvalues not converged
     c_bands:  2 eigenvalues not converged
     c_bands:  2 eigenvalues not converged
     c_bands:  1 eigenvalues not converged
     c_bands:  1 eigenvalues not converged
     c_bands:  1 eigenvalues not converged
     c_bands:  2 eigenvalues not converged
     c_bands:  4 eigenvalues not converged
     c_bands:  5 eigenvalues not converged
     c_bands:  1 eigenvalues not converged
     c_bands:  4 eigenvalues not converged
     c_bands:  2 eigenvalues not converged
     c_bands:  4 eigenvalues not converged
     c_bands:  4 eigenvalues not converged
     c_bands:  1 eigenvalues not converged
     c_bands:  2 eigenvalues not converged
     c_bands:  1 eigenvalues not converged
     c_bands:  3 eigenvalues not converged
     c_bands:  2 eigenvalues not converged
     c_bands:  5 eigenvalues not converged
     c_bands:  4 eigenvalues not converged
     c_bands:  5 eigenvalues not converged
     c_bands:  1 eigenvalues not converged
     c_bands:  5 eigenvalues not converged
     c_bands:  5 eigenvalues not converged
     c_bands:  1 eigenvalues not converged
     c_bands:  5 eigenvalues not converged
     c_bands:  5 eigenvalues not converged
     c_bands:  3 eigenvalues not converged
     ethr =  1.00E-06,  avg # of iterations = 14.8

     total cpu time spent up to now is       49.4 secs

     total energy              =    -334.63931950 Ry
     Harris-Foulkes estimate   =    -339.82397378 Ry
     estimated scf accuracy    <       6.39736839 Ry

     iteration #  2     ecut=    40.00 Ry     beta=0.70
     CG style diagonalization
     ethr =  1.00E-02,  avg # of iterations =  4.4

     total cpu time spent up to now is       51.0 secs

     total energy              =    -336.61523412 Ry
     Harris-Foulkes estimate   =    -338.92523255 Ry
     estimated scf accuracy    <       3.88646319 Ry

     iteration #  3     ecut=    40.00 Ry     beta=0.70
     CG style diagonalization
     ethr =  1.00E-02,  avg # of iterations =  3.5

     total cpu time spent up to now is       52.3 secs

     total energy              =    -337.41002046 Ry
     Harris-Foulkes estimate   =    -337.44414159 Ry
     estimated scf accuracy    <       0.05676046 Ry

     iteration #  4     ecut=    40.00 Ry     beta=0.70
     CG style diagonalization
     ethr =  1.77E-04,  avg # of iterations =  4.4

     total cpu time spent up to now is       53.9 secs

     total energy              =    -337.44002739 Ry
     Harris-Foulkes estimate   =    -337.44325079 Ry
     estimated scf accuracy    <       0.00568585 Ry

     iteration #  5     ecut=    40.00 Ry     beta=0.70
     CG style diagonalization
     ethr =  1.78E-05,  avg # of iterations =  4.0

     total cpu time spent up to now is       55.4 secs

     total energy              =    -337.44129888 Ry
     Harris-Foulkes estimate   =    -337.44164041 Ry
     estimated scf accuracy    <       0.00058162 Ry

     iteration #  6     ecut=    40.00 Ry     beta=0.70
     CG style diagonalization
     c_bands:  1 eigenvalues not converged
     ethr =  1.82E-06,  avg # of iterations =  4.3

     total cpu time spent up to now is       57.0 secs

     total energy              =    -337.44152105 Ry
     Harris-Foulkes estimate   =    -337.44154489 Ry
     estimated scf accuracy    <       0.00003879 Ry

     iteration #  7     ecut=    40.00 Ry     beta=0.70
     CG style diagonalization
     ethr =  1.21E-07,  avg # of iterations =  4.2

     total cpu time spent up to now is       58.6 secs

     End of self-consistent calculation

     Number of k-points >= 100: set verbosity='high' to print the bands.

     the Fermi energy is    27.1137 ev

!    total energy              =    -337.44153576 Ry
     Harris-Foulkes estimate   =    -337.44153645 Ry
     estimated scf accuracy    <       0.00000079 Ry

     The total energy is the sum of the following terms:

     one-electron contribution =     -44.10457025 Ry
     hartree contribution      =      48.03886711 Ry
     xc contribution           =     -34.61744780 Ry
     ewald contribution        =    -306.67988680 Ry
     smearing contrib. (-TS)   =      -0.07849802 Ry

     convergence has been achieved in   7 iterations

     Forces acting on atoms (Ry/au):

     atom    1 type  1   force =     0.00000000    0.00000000    0.00000000
     atom    2 type  2   force =     0.00000000    0.00000000    0.00000000

     Total force =     0.000000     Total SCF correction =     0.000000


     entering subroutine stress ...

          total   stress  (Ry/bohr**3)                   (kbar)     P=  389.89
   0.00236439   0.00000000   0.00000000        347.81      0.00      0.00
   0.00000000   0.00236439   0.00000000          0.00    347.81      0.00
   0.00000000   0.00000000   0.00322253          0.00      0.00    474.05


     number of scf cycles    =   3
     number of bfgs steps    =   2

     enthalpy old            =    -337.3947459116 Ry
     enthalpy new            =    -337.4415357625 Ry

     CASE: enthalpy_new < enthalpy_old

     Message from routine bfgs:
     history already reset at previous step: stopping
     small trust_radius: resetting bfgs history

     new trust radius        =       0.2530605189 bohr
     new conv_thr            =       0.0000010000 Ry

     new unit-cell volume =    298.98289 a.u.^3 (    44.30469 Ang^3 )

CELL_PARAMETERS (alat=  5.41249258)
   1.119440405   0.000000000   0.000000000
   0.000000000   1.119440405   0.000000000
   0.000000000   0.000000000   1.504708699

ATOMIC_POSITIONS (crystal)
Cu       0.500000000   0.500000000   0.500000000
Au       0.000000000   0.000000000   0.000000000



     Writing output data file Prototype-La-tP2-AuCu.save
     NEW-OLD atomic charge density approx. for the potential
     NEW k-points: (use verbosity='high' to print them)

     total cpu time spent up to now is       59.5 secs

     Self-consistent Calculation

     iteration #  1     ecut=    40.00 Ry     beta=0.70
     CG style diagonalization
     c_bands:  1 eigenvalues not converged
     c_bands:  1 eigenvalues not converged
     c_bands:  1 eigenvalues not converged
     c_bands:  1 eigenvalues not converged
     c_bands:  3 eigenvalues not converged
     c_bands:  3 eigenvalues not converged
     c_bands:  2 eigenvalues not converged
     c_bands:  2 eigenvalues not converged
     c_bands:  2 eigenvalues not converged
     c_bands:  3 eigenvalues not converged
     c_bands:  1 eigenvalues not converged
     c_bands:  3 eigenvalues not converged
     c_bands:  2 eigenvalues not converged
     c_bands:  2 eigenvalues not converged
     c_bands:  2 eigenvalues not converged
     c_bands:  2 eigenvalues not converged
     c_bands:  2 eigenvalues not converged
     c_bands:  1 eigenvalues not converged
     c_bands:  2 eigenvalues not converged
     c_bands:  2 eigenvalues not converged
     c_bands:  2 eigenvalues not converged
     c_bands:  2 eigenvalues not converged
     c_bands:  2 eigenvalues not converged
     c_bands:  3 eigenvalues not converged
     c_bands:  3 eigenvalues not converged
     c_bands:  1 eigenvalues not converged
     c_bands:  3 eigenvalues not converged
     c_bands:  3 eigenvalues not converged
     c_bands:  2 eigenvalues not converged
     c_bands:  1 eigenvalues not converged
     c_bands:  1 eigenvalues not converged
     c_bands:  1 eigenvalues not converged
     c_bands:  1 eigenvalues not converged
     c_bands:  1 eigenvalues not converged
     c_bands:  1 eigenvalues not converged
     c_bands:  1 eigenvalues not converged
     c_bands:  1 eigenvalues not converged
     c_bands:  2 eigenvalues not converged
     c_bands:  1 eigenvalues not converged
     c_bands:  1 eigenvalues not converged
     c_bands:  2 eigenvalues not converged
     c_bands:  1 eigenvalues not converged
     c_bands:  3 eigenvalues not converged
     c_bands:  5 eigenvalues not converged
     c_bands:  2 eigenvalues not converged
     c_bands:  2 eigenvalues not converged
     c_bands:  1 eigenvalues not converged
     c_bands:  2 eigenvalues not converged
     c_bands:  2 eigenvalues not converged
     c_bands:  2 eigenvalues not converged
     c_bands:  2 eigenvalues not converged
     c_bands:  1 eigenvalues not converged
     ethr =  1.00E-06,  avg # of iterations = 12.0

     total cpu time spent up to now is       63.9 secs

     total energy              =    -336.16483391 Ry
     Harris-Foulkes estimate   =    -338.89104338 Ry
     estimated scf accuracy    <       3.43452585 Ry

     iteration #  2     ecut=    40.00 Ry     beta=0.70
     CG style diagonalization
     ethr =  1.00E-02,  avg # of iterations =  3.7

     total cpu time spent up to now is       65.8 secs

     total energy              =    -336.61075375 Ry
     Harris-Foulkes estimate   =    -337.97095874 Ry
     estimated scf accuracy    <       2.32340385 Ry

     iteration #  3     ecut=    40.00 Ry     beta=0.70
     CG style diagonalization
     ethr =  7.26E-03,  avg # of iterations =  3.5

     total cpu time spent up to now is       67.0 secs

     total energy              =    -337.39435534 Ry
     Harris-Foulkes estimate   =    -337.51326222 Ry
     estimated scf accuracy    <       0.25300740 Ry

     iteration #  4     ecut=    40.00 Ry     beta=0.70
     CG style diagonalization
     ethr =  7.91E-04,  avg # of iterations =  3.4

     total cpu time spent up to now is       68.3 secs

     total energy              =    -337.42714053 Ry
     Harris-Foulkes estimate   =    -337.43674469 Ry
     estimated scf accuracy    <       0.02575025 Ry

     iteration #  5     ecut=    40.00 Ry     beta=0.70
     CG style diagonalization
     ethr =  8.05E-05,  avg # of iterations =  3.6

     total cpu time spent up to now is       69.6 secs

     total energy              =    -337.43023980 Ry
     Harris-Foulkes estimate   =    -337.43177236 Ry
     estimated scf accuracy    <       0.00290537 Ry

     iteration #  6     ecut=    40.00 Ry     beta=0.70
     CG style diagonalization
     c_bands:  1 eigenvalues not converged
     ethr =  9.08E-06,  avg # of iterations =  4.0

     total cpu time spent up to now is       71.1 secs

     total energy              =    -337.43124244 Ry
     Harris-Foulkes estimate   =    -337.43126993 Ry
     estimated scf accuracy    <       0.00004664 Ry

     iteration #  7     ecut=    40.00 Ry     beta=0.70
     CG style diagonalization
     ethr =  1.46E-07,  avg # of iterations =  4.3

     total cpu time spent up to now is       72.6 secs

     total energy              =    -337.43127122 Ry
     Harris-Foulkes estimate   =    -337.43127174 Ry
     estimated scf accuracy    <       0.00000108 Ry

     iteration #  8     ecut=    40.00 Ry     beta=0.70
     CG style diagonalization
     ethr =  3.38E-09,  avg # of iterations =  4.3

     total cpu time spent up to now is       74.2 secs

     End of self-consistent calculation

     Number of k-points >= 100: set verbosity='high' to print the bands.

     the Fermi energy is    21.7752 ev

!    total energy              =    -337.43127185 Ry
     Harris-Foulkes estimate   =    -337.43127192 Ry
     estimated scf accuracy    <       0.00000009 Ry

     The total energy is the sum of the following terms:

     one-electron contribution =     -71.71222656 Ry
     hartree contribution      =      55.98830511 Ry
     xc contribution           =     -34.08828699 Ry
     ewald contribution        =    -287.52509893 Ry
     smearing contrib. (-TS)   =      -0.09396449 Ry

     convergence has been achieved in   8 iterations

     Forces acting on atoms (Ry/au):

     atom    1 type  1   force =     0.00000000    0.00000000    0.00000000
     atom    2 type  2   force =     0.00000000    0.00000000    0.00000000

     Total force =     0.000000     Total SCF correction =     0.000000


     entering subroutine stress ...

          total   stress  (Ry/bohr**3)                   (kbar)     P= -357.57
  -0.00237340   0.00000000   0.00000000       -349.14      0.00      0.00
   0.00000000  -0.00237340   0.00000000          0.00   -349.14      0.00
   0.00000000   0.00000000  -0.00254539          0.00      0.00   -374.44


     The maximum number of steps has been reached.

     End of BFGS Geometry Optimization
Begin final coordinates
     new unit-cell volume =    298.98289 a.u.^3 (    44.30469 Ang^3 )

CELL_PARAMETERS (alat=  5.41249258)
   1.119440405   0.000000000   0.000000000
   0.000000000   1.119440405   0.000000000
   0.000000000   0.000000000   1.504708699

ATOMIC_POSITIONS (crystal)
Cu       0.500000000   0.500000000   0.500000000
Au       0.000000000   0.000000000   0.000000000
End final coordinates



     A final scf calculation at the relaxed structure.
     The G-vectors are recalculated for the final unit cell
     Results may differ from those at the preceding step.
 
     Parallelization info
     --------------------
     sticks:   dense  smooth     PW     G-vecs:    dense   smooth      PW
     Min         117     117     36                 2547     2547     452
     Max         119     119     37                 2549     2549     454
     Sum         473     473    145                10193    10193    1811
 


     bravais-lattice index     =            0
     lattice parameter (alat)  =       5.4125  a.u.
     unit-cell volume          =     298.9829 (a.u.)^3
     number of atoms/cell      =            2
     number of atomic types    =            2
     number of electrons       =        32.00
     number of Kohn-Sham states=           20
     kinetic-energy cutoff     =      40.0000  Ry
     charge density cutoff     =     160.0000  Ry
     convergence threshold     =      1.0E-06
     mixing beta               =       0.7000
     number of iterations used =            8  plain     mixing
     Exchange-correlation      = SLA-PZ-NOGX-NOGC ( 1 1 0 0 0)
     EXX-fraction              =        0.00

     celldm(1)=   5.412493  celldm(2)=   0.000000  celldm(3)=   0.000000
     celldm(4)=   0.000000  celldm(5)=   0.000000  celldm(6)=   0.000000

     crystal axes: (cart. coord. in units of alat)
               a(1) = (   1.119440   0.000000   0.000000 )  
               a(2) = (   0.000000   1.119440   0.000000 )  
               a(3) = (   0.000000   0.000000   1.504709 )  

     reciprocal axes: (cart. coord. in units 2 pi/alat)
               b(1) = (  0.893303  0.000000  0.000000 )  
               b(2) = (  0.000000  0.893303  0.000000 )  
               b(3) = (  0.000000  0.000000  0.664580 )  


     PseudoPot. # 1 for Ce read from file:
     /home/jld5415/pp.La/Ce.UPF
     MD5 check sum: 44451aa79a44a00cf2bc029dc19922f6
     Pseudo is Norm-conserving, Zval = 12.0
     Generated in analytical, separable form
     Using radial grid of 1255 points,  6 beta functions with: 
                l(1) =   0
                l(2) =   0
                l(3) =   1
                l(4) =   1
                l(5) =   2
                l(6) =   3

     PseudoPot. # 2 for Dy read from file:
     /home/jld5415/pp.La/Dy.UPF
     MD5 check sum: 9597327bec62616a94a14d07f3fd9936
     Pseudo is Norm-conserving, Zval = 20.0
     Generated in analytical, separable form
     Using radial grid of 1265 points,  6 beta functions with: 
                l(1) =   0
                l(2) =   0
                l(3) =   1
                l(4) =   1
                l(5) =   2
                l(6) =   3

     atomic species   valence    mass     pseudopotential
        Cu            12.00    63.54600     Ce( 1.00)
        Au            20.00   196.96600     Dy( 1.00)

     16 Sym. Ops., with inversion, found



   Cartesian axes

     site n.     atom                  positions (alat units)
         1           Cu  tau(   1) = (   0.5597202   0.5597202   0.7523543  )
         2           Au  tau(   2) = (   0.0000000   0.0000000   0.0000000  )

     number of k points=   100  gaussian smearing, width (Ry)=  0.1000

     Number of k-points >= 100: set verbosity='high' to print them.

     Dense  grid:    10193 G-vectors     FFT dimensions: (  25,  25,  36)

     Largest allocated arrays     est. size (Mb)     dimensions
        Kohn-Sham Wavefunctions         0.10 Mb     (    329,   20)
        NL pseudopotentials             0.20 Mb     (    329,   40)
        Each V/rho on FFT grid          0.09 Mb     (   5625)
        Each G-vector array             0.02 Mb     (   2547)
        G-vector shells                 0.00 Mb     (    646)
     Largest temporary arrays     est. size (Mb)     dimensions
        Each subspace H/S matrix        0.01 Mb     (  20,  20)
        Each <psi_i|beta_j> matrix      0.01 Mb     (     40,   20)
        Arrays for rho mixing           0.69 Mb     (   5625,   8)

     Initial potential from superposition of free atoms

     Starting from uniform charge
     Starting wfc are    0 randomized atomic wfcs

     Writing output data file Prototype-La-tP2-AuCu.save

     total cpu time spent up to now is       75.6 secs

     Self-consistent Calculation

     iteration #  1     ecut=    40.00 Ry     beta=0.70
     CG style diagonalization
     c_bands:  3 eigenvalues not converged
     c_bands:  4 eigenvalues not converged
     c_bands:  4 eigenvalues not converged
     c_bands:  5 eigenvalues not converged
     c_bands:  5 eigenvalues not converged
     c_bands:  4 eigenvalues not converged
     c_bands:  5 eigenvalues not converged
     c_bands:  3 eigenvalues not converged
     c_bands:  5 eigenvalues not converged
     c_bands:  5 eigenvalues not converged
     c_bands:  5 eigenvalues not converged
     c_bands:  4 eigenvalues not converged
     c_bands:  4 eigenvalues not converged
     c_bands:  4 eigenvalues not converged
     c_bands:  4 eigenvalues not converged
     c_bands:  5 eigenvalues not converged
     c_bands:  3 eigenvalues not converged
     c_bands:  4 eigenvalues not converged
     ethr =  1.00E-06,  avg # of iterations = 40.6

     total cpu time spent up to now is       96.0 secs

     total energy              =    -135.91071169 Ry
     Harris-Foulkes estimate   =    -465.60682907 Ry
     estimated scf accuracy    <     398.76814570 Ry

     iteration #  2     ecut=    40.00 Ry     beta=0.70
     CG style diagonalization
     c_bands:  3 eigenvalues not converged
     c_bands:  1 eigenvalues not converged
     c_bands:  1 eigenvalues not converged
     c_bands:  4 eigenvalues not converged
     c_bands:  1 eigenvalues not converged
     c_bands:  1 eigenvalues not converged
     c_bands:  2 eigenvalues not converged
     c_bands:  1 eigenvalues not converged
     c_bands:  2 eigenvalues not converged
     c_bands:  2 eigenvalues not converged
     c_bands:  1 eigenvalues not converged
     c_bands:  1 eigenvalues not converged
     c_bands:  1 eigenvalues not converged
     c_bands:  1 eigenvalues not converged
     c_bands:  1 eigenvalues not converged
     c_bands:  2 eigenvalues not converged
     c_bands:  2 eigenvalues not converged
     c_bands:  2 eigenvalues not converged
     c_bands:  2 eigenvalues not converged
     c_bands:  2 eigenvalues not converged
     c_bands:  3 eigenvalues not converged
     c_bands:  1 eigenvalues not converged
     c_bands:  2 eigenvalues not converged
     c_bands:  1 eigenvalues not converged
     c_bands:  1 eigenvalues not converged
     c_bands:  1 eigenvalues not converged
     c_bands:  1 eigenvalues not converged
     c_bands:  1 eigenvalues not converged
     c_bands:  2 eigenvalues not converged
     c_bands:  1 eigenvalues not converged
     c_bands:  2 eigenvalues not converged
     c_bands:  1 eigenvalues not converged
     c_bands:  2 eigenvalues not converged
     c_bands:  1 eigenvalues not converged
     c_bands:  3 eigenvalues not converged
     c_bands:  2 eigenvalues not converged
     c_bands:  1 eigenvalues not converged
     c_bands:  1 eigenvalues not converged
     c_bands:  2 eigenvalues not converged
     c_bands:  5 eigenvalues not converged
     c_bands:  2 eigenvalues not converged
     c_bands:  2 eigenvalues not converged
     c_bands:  2 eigenvalues not converged
     c_bands:  1 eigenvalues not converged
     c_bands:  1 eigenvalues not converged
     c_bands:  1 eigenvalues not converged
     c_bands:  1 eigenvalues not converged
     c_bands:  1 eigenvalues not converged
     c_bands:  2 eigenvalues not converged
     c_bands:  3 eigenvalues not converged
     c_bands:  2 eigenvalues not converged
     c_bands:  2 eigenvalues not converged
     ethr =  1.00E-02,  avg # of iterations = 13.8

     total cpu time spent up to now is      103.4 secs

     total energy              =    -248.26514816 Ry
     Harris-Foulkes estimate   =    -520.58178789 Ry
     estimated scf accuracy    <     547.71576052 Ry

     iteration #  3     ecut=    40.00 Ry     beta=0.70
     CG style diagonalization
     ethr =  1.00E-02,  avg # of iterations = 11.6

     total cpu time spent up to now is      109.8 secs

     total energy              =    -335.89366284 Ry
     Harris-Foulkes estimate   =    -345.20692797 Ry
     estimated scf accuracy    <      16.42244967 Ry

     iteration #  4     ecut=    40.00 Ry     beta=0.70
     CG style diagonalization
     ethr =  1.00E-02,  avg # of iterations =  4.4

     total cpu time spent up to now is      112.7 secs

     total energy              =    -337.64813514 Ry
     Harris-Foulkes estimate   =    -338.27670207 Ry
     estimated scf accuracy    <       1.25659464 Ry

     iteration #  5     ecut=    40.00 Ry     beta=0.70
     CG style diagonalization
     ethr =  3.93E-03,  avg # of iterations =  3.5

     negative rho (up, down):  0.179E-04 0.000E+00

     total cpu time spent up to now is      114.6 secs

     total energy              =    -337.76552632 Ry
     Harris-Foulkes estimate   =    -337.85848760 Ry
     estimated scf accuracy    <       0.14500299 Ry

     iteration #  6     ecut=    40.00 Ry     beta=0.70
     CG style diagonalization
     c_bands:  1 eigenvalues not converged
     ethr =  4.53E-04,  avg # of iterations =  5.0

     total cpu time spent up to now is      117.4 secs

     total energy              =    -337.81393656 Ry
     Harris-Foulkes estimate   =    -337.87407328 Ry
     estimated scf accuracy    <       0.08740791 Ry

     iteration #  7     ecut=    40.00 Ry     beta=0.70
     CG style diagonalization
     ethr =  2.73E-04,  avg # of iterations =  3.8

     total cpu time spent up to now is      120.0 secs

     total energy              =    -337.83348673 Ry
     Harris-Foulkes estimate   =    -337.83391133 Ry
     estimated scf accuracy    <       0.00080581 Ry

     iteration #  8     ecut=    40.00 Ry     beta=0.70
     CG style diagonalization
     c_bands:  1 eigenvalues not converged
     c_bands:  1 eigenvalues not converged
     c_bands:  1 eigenvalues not converged
     c_bands:  1 eigenvalues not converged
     c_bands:  1 eigenvalues not converged
     c_bands:  1 eigenvalues not converged
     c_bands:  1 eigenvalues not converged
     c_bands:  1 eigenvalues not converged
     c_bands:  1 eigenvalues not converged
     c_bands:  1 eigenvalues not converged
     c_bands:  1 eigenvalues not converged
     c_bands:  1 eigenvalues not converged
     c_bands:  1 eigenvalues not converged
     c_bands:  1 eigenvalues not converged
     c_bands:  1 eigenvalues not converged
     ethr =  2.52E-06,  avg # of iterations =  5.3

     total cpu time spent up to now is      123.3 secs

     total energy              =    -337.83418287 Ry
     Harris-Foulkes estimate   =    -337.83422557 Ry
     estimated scf accuracy    <       0.00011310 Ry

     iteration #  9     ecut=    40.00 Ry     beta=0.70
     CG style diagonalization
     ethr =  3.53E-07,  avg # of iterations =  3.6

     total cpu time spent up to now is      125.3 secs

     total energy              =    -337.83417850 Ry
     Harris-Foulkes estimate   =    -337.83420422 Ry
     estimated scf accuracy    <       0.00004386 Ry

     iteration # 10     ecut=    40.00 Ry     beta=0.70
     CG style diagonalization
     ethr =  1.37E-07,  avg # of iterations =  3.6

     total cpu time spent up to now is      127.4 secs

     total energy              =    -337.83418495 Ry
     Harris-Foulkes estimate   =    -337.83418567 Ry
     estimated scf accuracy    <       0.00000122 Ry

     iteration # 11     ecut=    40.00 Ry     beta=0.70
     CG style diagonalization
     ethr =  3.83E-09,  avg # of iterations =  4.9

     total cpu time spent up to now is      130.1 secs

     End of self-consistent calculation

     Number of k-points >= 100: set verbosity='high' to print the bands.

     the Fermi energy is    21.7330 ev

!    total energy              =    -337.83418611 Ry
     Harris-Foulkes estimate   =    -337.83418615 Ry
     estimated scf accuracy    <       0.00000004 Ry

     The total energy is the sum of the following terms:

     one-electron contribution =     -72.26731920 Ry
     hartree contribution      =      56.18452678 Ry
     xc contribution           =     -34.13216634 Ry
     ewald contribution        =    -287.52509402 Ry
     smearing contrib. (-TS)   =      -0.09413332 Ry

     convergence has been achieved in  11 iterations

     Forces acting on atoms (Ry/au):

     atom    1 type  1   force =     0.00000000    0.00000000    0.00000000
     atom    2 type  2   force =     0.00000000    0.00000000    0.00000000

     Total force =     0.000000     Total SCF correction =     0.000000


     entering subroutine stress ...

          total   stress  (Ry/bohr**3)                   (kbar)     P=   52.82
   0.00018371   0.00000000   0.00000000         27.03      0.00      0.00
   0.00000000   0.00018371   0.00000000          0.00     27.03      0.00
   0.00000000   0.00000000   0.00070983          0.00      0.00    104.42


     Writing output data file Prototype-La-tP2-AuCu.save
 
     init_run     :      0.99s CPU      1.12s WALL (       2 calls)
     electrons    :    116.29s CPU    124.34s WALL (       5 calls)
     update_pot   :      0.44s CPU      0.45s WALL (       3 calls)
     forces       :      0.59s CPU      0.60s WALL (       5 calls)
     stress       :      1.57s CPU      1.59s WALL (       5 calls)

     Called by init_run:
     wfcinit      :      0.74s CPU      0.87s WALL (       2 calls)
     potinit      :      0.08s CPU      0.08s WALL (       2 calls)

     Called by electrons:
     c_bands      :    110.48s CPU    117.97s WALL (      44 calls)
     sum_band     :      5.69s CPU      5.97s WALL (      44 calls)
     v_of_rho     :      0.02s CPU      0.02s WALL (      49 calls)
     mix_rho      :      0.02s CPU      0.02s WALL (      44 calls)

     Called by c_bands:
     init_us_2    :      1.14s CPU      1.14s WALL (   10000 calls)
     ccgdiagg     :     94.07s CPU     99.71s WALL (    4640 calls)
     wfcrot       :     16.25s CPU     17.44s WALL (    4740 calls)

     Called by *cgdiagg:
     h_psi        :     80.88s CPU     87.24s WALL (  488552 calls)
     cdiaghg      :      0.61s CPU      0.77s WALL (    4740 calls)

     Called by h_psi:
     add_vuspsi   :      4.65s CPU      5.99s WALL (  488552 calls)

     General routines
     calbec       :     13.84s CPU     15.20s WALL (  973364 calls)
     fft          :      0.02s CPU      0.02s WALL (     219 calls)
     fftw         :     66.19s CPU     68.62s WALL ( 1245224 calls)
     davcio       :      0.45s CPU      1.19s WALL (   14400 calls)
 
     Parallel routines
     fft_scatter  :     20.13s CPU     22.21s WALL ( 1245443 calls)
 
     PWSCF        :  2m 0.77s CPU     2m11.94s WALL

 
   This run was terminated on:   0:34:29  22Mar2018            

=------------------------------------------------------------------------------=
   JOB DONE.
=------------------------------------------------------------------------------=
