
     Program PWSCF v.5.0.2 starts on 22Mar2018 at 16:20:27 

     This program is part of the open-source Quantum ESPRESSO suite
     for quantum simulation of materials; please cite
         "P. Giannozzi et al., J. Phys.:Condens. Matter 21 395502 (2009);
          URL http://www.quantum-espresso.org", 
     in publications or presentations arising from this work. More details at
     http://www.quantum-espresso.org/quote.php

     Parallel version (MPI), running on     4 processors
     R & G space division:  proc/nbgrp/npool/nimage =       4

     Current dimensions of program PWSCF are:
     Max number of different atomic species (ntypx) = 10
     Max number of k-points (npk) =  40000
     Max angular momentum in pseudopotentials (lmaxx) =  3
     Waiting for input...
     Reading input from standard input

     Subspace diagonalization in iterative solution of the eigenvalue problem:
     a serial algorithm will be used

 
     Parallelization info
     --------------------
     sticks:   dense  smooth     PW     G-vecs:    dense   smooth      PW
     Min         162     162     52                 2693     2693     497
     Max         163     163     54                 2695     2695     498
     Sum         649     649    211                10777    10777    1989
 


     bravais-lattice index     =            0
     lattice parameter (alat)  =       7.6055  a.u.
     unit-cell volume          =     311.0722 (a.u.)^3
     number of atoms/cell      =            2
     number of atomic types    =            2
     number of electrons       =        32.00
     number of Kohn-Sham states=           20
     kinetic-energy cutoff     =      40.0000  Ry
     charge density cutoff     =     160.0000  Ry
     convergence threshold     =      1.0E-04
     mixing beta               =       0.7000
     number of iterations used =            8  plain     mixing
     Exchange-correlation      = SLA-PZ-NOGX-NOGC ( 1 1 0 0 0)
     EXX-fraction              =        0.00
     nstep                     =           50


     celldm(1)=   7.605458  celldm(2)=   0.000000  celldm(3)=   0.000000
     celldm(4)=   0.000000  celldm(5)=   0.000000  celldm(6)=   0.000000

     crystal axes: (cart. coord. in units of alat)
               a(1) = (   1.000000   0.000000   0.000000 )  
               a(2) = (   0.500000   0.866025   0.000000 )  
               a(3) = (   0.500000   0.288675   0.816497 )  

     reciprocal axes: (cart. coord. in units 2 pi/alat)
               b(1) = (  1.000000 -0.577350 -0.408248 )  
               b(2) = (  0.000000  1.154701 -0.408248 )  
               b(3) = (  0.000000  0.000000  1.224745 )  


     PseudoPot. # 1 for Pr read from file:
     /home/cwx6513/pp.La/Pr.UPF
     MD5 check sum: 70e2b4b153859e92c8c91247dfc63203
     Pseudo is Norm-conserving, Zval = 13.0
     Generated in analytical, separable form
     Using radial grid of 1255 points,  6 beta functions with: 
                l(1) =   0
                l(2) =   0
                l(3) =   1
                l(4) =   1
                l(5) =   2
                l(6) =   3

     PseudoPot. # 2 for Tb read from file:
     /home/cwx6513/pp.La/Tb.UPF
     MD5 check sum: 3d6088a3f0cf7fd2e110c43f7f8e95c2
     Pseudo is Norm-conserving, Zval = 19.0
     Generated in analytical, separable form
     Using radial grid of 1263 points,  6 beta functions with: 
                l(1) =   0
                l(2) =   0
                l(3) =   1
                l(4) =   1
                l(5) =   2
                l(6) =   3

     atomic species   valence    mass     pseudopotential
        Na            13.00    22.98970     Pr( 1.00)
        Cl            19.00    35.45300     Tb( 1.00)

     12 Sym. Ops., with inversion, found



   Cartesian axes

     site n.     atom                  positions (alat units)
         1           Na  tau(   1) = (   0.0000000   0.0000000   0.0000000  )
         2           Cl  tau(   2) = (   1.0000000   0.5773503   0.4082483  )

     number of k points=   496  gaussian smearing, width (Ry)=  0.1000

     Number of k-points >= 100: set verbosity='high' to print them.

     Dense  grid:    10777 G-vectors     FFT dimensions: (  32,  32,  32)

     Largest allocated arrays     est. size (Mb)     dimensions
        Kohn-Sham Wavefunctions         0.10 Mb     (    343,   20)
        NL pseudopotentials             0.21 Mb     (    343,   40)
        Each V/rho on FFT grid          0.12 Mb     (   8192)
        Each G-vector array             0.02 Mb     (   2694)
        G-vector shells                 0.02 Mb     (   2694)
     Largest temporary arrays     est. size (Mb)     dimensions
        Each subspace H/S matrix        0.01 Mb     (  20,  20)
        Each <psi_i|beta_j> matrix      0.01 Mb     (     40,   20)
        Arrays for rho mixing           1.00 Mb     (   8192,   8)

     Initial potential from superposition of free atoms

     starting charge   12.99054, renormalised to   32.00000

     negative rho (up, down):  0.196E-03 0.000E+00
     Starting wfc are   20 randomized atomic wfcs

     total cpu time spent up to now is        4.2 secs

     Self-consistent Calculation

     iteration #  1     ecut=    40.00 Ry     beta=0.70
     CG style diagonalization
     c_bands:  5 eigenvalues not converged
     c_bands:  1 eigenvalues not converged
     c_bands:  1 eigenvalues not converged
     c_bands:  5 eigenvalues not converged
     c_bands:  5 eigenvalues not converged
     c_bands:  5 eigenvalues not converged
     c_bands:  5 eigenvalues not converged
     c_bands:  4 eigenvalues not converged
     c_bands:  5 eigenvalues not converged
     c_bands:  5 eigenvalues not converged
     c_bands:  4 eigenvalues not converged
     c_bands:  5 eigenvalues not converged
     c_bands:  4 eigenvalues not converged
     c_bands:  5 eigenvalues not converged
     c_bands:  5 eigenvalues not converged
     c_bands:  4 eigenvalues not converged
     c_bands:  3 eigenvalues not converged
     c_bands:  5 eigenvalues not converged
     c_bands:  5 eigenvalues not converged
     c_bands:  4 eigenvalues not converged
     c_bands:  4 eigenvalues not converged
     c_bands:  4 eigenvalues not converged
     c_bands:  4 eigenvalues not converged
     c_bands:  5 eigenvalues not converged
     c_bands:  4 eigenvalues not converged
     c_bands:  3 eigenvalues not converged
     c_bands:  3 eigenvalues not converged
     c_bands:  1 eigenvalues not converged
     c_bands:  3 eigenvalues not converged
     c_bands:  4 eigenvalues not converged
     c_bands:  5 eigenvalues not converged
     c_bands:  2 eigenvalues not converged
     c_bands:  3 eigenvalues not converged
     c_bands:  5 eigenvalues not converged
     c_bands:  5 eigenvalues not converged
     c_bands:  5 eigenvalues not converged
     c_bands:  5 eigenvalues not converged
     c_bands:  5 eigenvalues not converged
     c_bands:  4 eigenvalues not converged
     c_bands:  3 eigenvalues not converged
     c_bands:  5 eigenvalues not converged
     c_bands:  5 eigenvalues not converged
     c_bands:  5 eigenvalues not converged
     c_bands:  5 eigenvalues not converged
     c_bands:  4 eigenvalues not converged
     c_bands:  5 eigenvalues not converged
     c_bands:  4 eigenvalues not converged
     c_bands:  5 eigenvalues not converged
     c_bands:  4 eigenvalues not converged
     c_bands:  5 eigenvalues not converged
     c_bands:  5 eigenvalues not converged
     c_bands:  5 eigenvalues not converged
     c_bands:  4 eigenvalues not converged
     c_bands:  2 eigenvalues not converged
     c_bands:  2 eigenvalues not converged
     c_bands:  3 eigenvalues not converged
     c_bands:  4 eigenvalues not converged
     c_bands:  5 eigenvalues not converged
     c_bands:  4 eigenvalues not converged
     c_bands:  4 eigenvalues not converged
     c_bands:  5 eigenvalues not converged
     c_bands:  5 eigenvalues not converged
     c_bands:  4 eigenvalues not converged
     c_bands:  5 eigenvalues not converged
     c_bands:  4 eigenvalues not converged
     c_bands:  5 eigenvalues not converged
     c_bands:  4 eigenvalues not converged
     c_bands:  5 eigenvalues not converged
     c_bands:  5 eigenvalues not converged
     c_bands:  3 eigenvalues not converged
     c_bands:  3 eigenvalues not converged
     c_bands:  2 eigenvalues not converged
     c_bands:  5 eigenvalues not converged
     c_bands:  5 eigenvalues not converged
     c_bands:  5 eigenvalues not converged
     c_bands:  5 eigenvalues not converged
     c_bands:  3 eigenvalues not converged
     c_bands:  5 eigenvalues not converged
     c_bands:  5 eigenvalues not converged
     c_bands:  5 eigenvalues not converged
     c_bands:  4 eigenvalues not converged
     c_bands:  4 eigenvalues not converged
     c_bands:  3 eigenvalues not converged
     c_bands:  5 eigenvalues not converged
     c_bands:  4 eigenvalues not converged
     c_bands:  5 eigenvalues not converged
     c_bands:  5 eigenvalues not converged
     c_bands:  5 eigenvalues not converged
     c_bands:  5 eigenvalues not converged
     c_bands:  5 eigenvalues not converged
     c_bands:  5 eigenvalues not converged
     c_bands:  5 eigenvalues not converged
     c_bands:  5 eigenvalues not converged
     c_bands:  5 eigenvalues not converged
     c_bands:  3 eigenvalues not converged
     c_bands:  5 eigenvalues not converged
     c_bands:  4 eigenvalues not converged
     c_bands:  3 eigenvalues not converged
     c_bands:  2 eigenvalues not converged
     c_bands:  5 eigenvalues not converged
     c_bands:  5 eigenvalues not converged
     c_bands:  5 eigenvalues not converged
     c_bands:  5 eigenvalues not converged
     c_bands:  2 eigenvalues not converged
     c_bands:  3 eigenvalues not converged
     c_bands:  3 eigenvalues not converged
     c_bands:  4 eigenvalues not converged
     c_bands:  1 eigenvalues not converged
     c_bands:  5 eigenvalues not converged
     c_bands:  5 eigenvalues not converged
     c_bands:  5 eigenvalues not converged
     c_bands:  5 eigenvalues not converged
     c_bands:  4 eigenvalues not converged
     c_bands:  5 eigenvalues not converged
     c_bands:  5 eigenvalues not converged
     c_bands:  5 eigenvalues not converged
     c_bands:  5 eigenvalues not converged
     c_bands:  4 eigenvalues not converged
     c_bands:  5 eigenvalues not converged
     c_bands:  5 eigenvalues not converged
     c_bands:  4 eigenvalues not converged
     c_bands:  4 eigenvalues not converged
     c_bands:  5 eigenvalues not converged
     c_bands:  5 eigenvalues not converged
     c_bands:  3 eigenvalues not converged
     c_bands:  4 eigenvalues not converged
     c_bands:  4 eigenvalues not converged
     c_bands:  5 eigenvalues not converged
     c_bands:  4 eigenvalues not converged
     c_bands:  5 eigenvalues not converged
     c_bands:  3 eigenvalues not converged
     c_bands:  5 eigenvalues not converged
     c_bands:  5 eigenvalues not converged
     c_bands:  5 eigenvalues not converged
     c_bands:  5 eigenvalues not converged
     c_bands:  4 eigenvalues not converged
     c_bands:  5 eigenvalues not converged
     c_bands:  4 eigenvalues not converged
     c_bands:  4 eigenvalues not converged
     c_bands:  3 eigenvalues not converged
     c_bands:  5 eigenvalues not converged
     c_bands:  5 eigenvalues not converged
     c_bands:  5 eigenvalues not converged
     c_bands:  4 eigenvalues not converged
     c_bands:  5 eigenvalues not converged
     c_bands:  5 eigenvalues not converged
     c_bands:  5 eigenvalues not converged
     c_bands:  4 eigenvalues not converged
     c_bands:  5 eigenvalues not converged
     c_bands:  5 eigenvalues not converged
     c_bands:  5 eigenvalues not converged
     c_bands:  5 eigenvalues not converged
     c_bands:  3 eigenvalues not converged
     c_bands:  5 eigenvalues not converged
     c_bands:  4 eigenvalues not converged
     c_bands:  3 eigenvalues not converged
     c_bands:  5 eigenvalues not converged
     c_bands:  5 eigenvalues not converged
     c_bands:  3 eigenvalues not converged
     c_bands:  5 eigenvalues not converged
     c_bands:  5 eigenvalues not converged
     c_bands:  5 eigenvalues not converged
     c_bands:  4 eigenvalues not converged
     c_bands:  3 eigenvalues not converged
     c_bands:  5 eigenvalues not converged
     c_bands:  3 eigenvalues not converged
     c_bands:  5 eigenvalues not converged
     c_bands:  5 eigenvalues not converged
     c_bands:  4 eigenvalues not converged
     c_bands:  5 eigenvalues not converged
     c_bands:  3 eigenvalues not converged
     c_bands:  3 eigenvalues not converged
     c_bands:  4 eigenvalues not converged
     c_bands:  5 eigenvalues not converged
     c_bands:  5 eigenvalues not converged
     c_bands:  5 eigenvalues not converged
     c_bands:  4 eigenvalues not converged
     c_bands:  5 eigenvalues not converged
     c_bands:  5 eigenvalues not converged
     c_bands:  4 eigenvalues not converged
     c_bands:  5 eigenvalues not converged
     c_bands:  4 eigenvalues not converged
     c_bands:  4 eigenvalues not converged
     c_bands:  5 eigenvalues not converged
     c_bands:  4 eigenvalues not converged
     c_bands:  4 eigenvalues not converged
     c_bands:  3 eigenvalues not converged
     c_bands:  3 eigenvalues not converged
     c_bands:  4 eigenvalues not converged
     c_bands:  3 eigenvalues not converged
     c_bands:  5 eigenvalues not converged
     c_bands:  5 eigenvalues not converged
     c_bands:  5 eigenvalues not converged
     c_bands:  5 eigenvalues not converged
     c_bands:  4 eigenvalues not converged
     c_bands:  3 eigenvalues not converged
     c_bands:  3 eigenvalues not converged
     c_bands:  3 eigenvalues not converged
     c_bands:  5 eigenvalues not converged
     c_bands:  5 eigenvalues not converged
     c_bands:  5 eigenvalues not converged
     c_bands:  5 eigenvalues not converged
     c_bands:  4 eigenvalues not converged
     c_bands:  3 eigenvalues not converged
     c_bands:  3 eigenvalues not converged
     c_bands:  4 eigenvalues not converged
     c_bands:  5 eigenvalues not converged
     c_bands:  3 eigenvalues not converged
     c_bands:  4 eigenvalues not converged
     c_bands:  5 eigenvalues not converged
     c_bands:  5 eigenvalues not converged
     c_bands:  5 eigenvalues not converged
     c_bands:  5 eigenvalues not converged
     c_bands:  5 eigenvalues not converged
     c_bands:  5 eigenvalues not converged
     c_bands:  5 eigenvalues not converged
     c_bands:  4 eigenvalues not converged
     c_bands:  5 eigenvalues not converged
     c_bands:  3 eigenvalues not converged
     c_bands:  5 eigenvalues not converged
     c_bands:  4 eigenvalues not converged
     c_bands:  5 eigenvalues not converged
     c_bands:  4 eigenvalues not converged
     c_bands:  3 eigenvalues not converged
     c_bands:  3 eigenvalues not converged
     c_bands:  3 eigenvalues not converged
     c_bands:  4 eigenvalues not converged
     c_bands:  4 eigenvalues not converged
     c_bands:  5 eigenvalues not converged
     c_bands:  5 eigenvalues not converged
     c_bands:  3 eigenvalues not converged
     c_bands:  4 eigenvalues not converged
     c_bands:  3 eigenvalues not converged
     c_bands:  4 eigenvalues not converged
     c_bands:  4 eigenvalues not converged
     c_bands:  4 eigenvalues not converged
     c_bands:  4 eigenvalues not converged
     c_bands:  5 eigenvalues not converged
     c_bands:  4 eigenvalues not converged
     c_bands:  5 eigenvalues not converged
     c_bands:  5 eigenvalues not converged
     c_bands:  5 eigenvalues not converged
     c_bands:  4 eigenvalues not converged
     c_bands:  4 eigenvalues not converged
     c_bands:  4 eigenvalues not converged
     c_bands:  5 eigenvalues not converged
     c_bands:  5 eigenvalues not converged
     c_bands:  4 eigenvalues not converged
     c_bands:  5 eigenvalues not converged
     c_bands:  4 eigenvalues not converged
     c_bands:  4 eigenvalues not converged
     c_bands:  5 eigenvalues not converged
     c_bands:  3 eigenvalues not converged
     c_bands:  4 eigenvalues not converged
     c_bands:  4 eigenvalues not converged
     c_bands:  5 eigenvalues not converged
     c_bands:  4 eigenvalues not converged
     c_bands:  3 eigenvalues not converged
     c_bands:  3 eigenvalues not converged
     c_bands:  3 eigenvalues not converged
     c_bands:  5 eigenvalues not converged
     c_bands:  5 eigenvalues not converged
     ethr =  1.00E-02,  avg # of iterations = 17.3

     negative rho (up, down):  0.564E-04 0.000E+00

     total cpu time spent up to now is       71.5 secs

     total energy              =    -133.81217004 Ry
     Harris-Foulkes estimate   =    -650.78166445 Ry
     estimated scf accuracy    <     623.11565860 Ry

     iteration #  2     ecut=    40.00 Ry     beta=0.70
     CG style diagonalization
     c_bands:  1 eigenvalues not converged
     c_bands:  1 eigenvalues not converged
     c_bands:  1 eigenvalues not converged
     ethr =  1.00E-02,  avg # of iterations = 11.6

     negative rho (up, down):  0.260E-04 0.000E+00

     total cpu time spent up to now is      112.5 secs

     total energy              =    -263.30832858 Ry
     Harris-Foulkes estimate   =    -419.44521023 Ry
     estimated scf accuracy    <     245.66992026 Ry

     iteration #  3     ecut=    40.00 Ry     beta=0.70
     CG style diagonalization
     c_bands:  1 eigenvalues not converged
     c_bands:  1 eigenvalues not converged
     ethr =  1.00E-02,  avg # of iterations = 11.1

     negative rho (up, down):  0.194E-04 0.000E+00

     total cpu time spent up to now is      151.6 secs

     total energy              =    -326.05485171 Ry
     Harris-Foulkes estimate   =    -329.17488633 Ry
     estimated scf accuracy    <      14.91281891 Ry

     iteration #  4     ecut=    40.00 Ry     beta=0.70
     CG style diagonalization
     ethr =  1.00E-02,  avg # of iterations =  3.1

     total cpu time spent up to now is      162.6 secs

     total energy              =    -321.20095435 Ry
     Harris-Foulkes estimate   =    -326.27195172 Ry
     estimated scf accuracy    <       9.09568392 Ry

     iteration #  5     ecut=    40.00 Ry     beta=0.70
     CG style diagonalization
     ethr =  1.00E-02,  avg # of iterations =  4.1

     total cpu time spent up to now is      177.6 secs

     total energy              =    -322.03384695 Ry
     Harris-Foulkes estimate   =    -322.37384053 Ry
     estimated scf accuracy    <       0.46524732 Ry

     iteration #  6     ecut=    40.00 Ry     beta=0.70
     CG style diagonalization
     ethr =  1.45E-03,  avg # of iterations =  4.5

     total cpu time spent up to now is      193.7 secs

     total energy              =    -322.24650008 Ry
     Harris-Foulkes estimate   =    -322.26272080 Ry
     estimated scf accuracy    <       0.14711887 Ry

     iteration #  7     ecut=    40.00 Ry     beta=0.70
     CG style diagonalization
     ethr =  4.60E-04,  avg # of iterations =  3.1

     total cpu time spent up to now is      205.7 secs

     total energy              =    -322.21789214 Ry
     Harris-Foulkes estimate   =    -322.25339563 Ry
     estimated scf accuracy    <       0.11650698 Ry

     iteration #  8     ecut=    40.00 Ry     beta=0.70
     CG style diagonalization
     ethr =  3.64E-04,  avg # of iterations =  3.2

     total cpu time spent up to now is      217.8 secs

     total energy              =    -322.21482835 Ry
     Harris-Foulkes estimate   =    -322.22999144 Ry
     estimated scf accuracy    <       0.01968523 Ry

     iteration #  9     ecut=    40.00 Ry     beta=0.70
     CG style diagonalization
     c_bands:  1 eigenvalues not converged
     c_bands:  1 eigenvalues not converged
     c_bands:  1 eigenvalues not converged
     c_bands:  1 eigenvalues not converged
     c_bands:  1 eigenvalues not converged
     c_bands:  1 eigenvalues not converged
     c_bands:  1 eigenvalues not converged
     c_bands:  1 eigenvalues not converged
     ethr =  6.15E-05,  avg # of iterations =  4.3

     total cpu time spent up to now is      233.2 secs

     total energy              =    -322.22131853 Ry
     Harris-Foulkes estimate   =    -322.23162848 Ry
     estimated scf accuracy    <       0.02388528 Ry

     iteration # 10     ecut=    40.00 Ry     beta=0.70
     CG style diagonalization
     ethr =  6.15E-05,  avg # of iterations =  3.4

     total cpu time spent up to now is      247.2 secs

     total energy              =    -322.22432280 Ry
     Harris-Foulkes estimate   =    -322.22462820 Ry
     estimated scf accuracy    <       0.00073503 Ry

     iteration # 11     ecut=    40.00 Ry     beta=0.70
     CG style diagonalization
     c_bands:  1 eigenvalues not converged
     c_bands:  1 eigenvalues not converged
     c_bands:  1 eigenvalues not converged
     c_bands:  1 eigenvalues not converged
     c_bands:  1 eigenvalues not converged
     c_bands:  1 eigenvalues not converged
     c_bands:  1 eigenvalues not converged
     c_bands:  1 eigenvalues not converged
     ethr =  2.30E-06,  avg # of iterations =  4.4

     total cpu time spent up to now is      262.0 secs

     End of self-consistent calculation

     Number of k-points >= 100: set verbosity='high' to print the bands.

     the Fermi energy is    20.4952 ev

!    total energy              =    -322.22461710 Ry
     Harris-Foulkes estimate   =    -322.22464579 Ry
     estimated scf accuracy    <       0.00003534 Ry

     The total energy is the sum of the following terms:

     one-electron contribution =     -64.14091895 Ry
     hartree contribution      =      51.55219741 Ry
     xc contribution           =     -33.51928623 Ry
     ewald contribution        =    -275.97398074 Ry
     smearing contrib. (-TS)   =      -0.14262860 Ry

     convergence has been achieved in  11 iterations

     Forces acting on atoms (Ry/au):

     atom    1 type  1   force =     0.00000000    0.00000000    0.00000000
     atom    2 type  2   force =     0.00000000    0.00000000    0.00000000

     Total force =     0.000000     Total SCF correction =     0.000000


     entering subroutine stress ...

          total   stress  (Ry/bohr**3)                   (kbar)     P=  -26.47
  -0.00018027   0.00000000   0.00000000        -26.52      0.00      0.00
   0.00000000  -0.00018027   0.00000000          0.00    -26.52      0.00
   0.00000000   0.00000000  -0.00017920          0.00      0.00    -26.36


     BFGS Geometry Optimization

     number of scf cycles    =   1
     number of bfgs steps    =   0

     enthalpy new            =    -322.2246171016 Ry

     new trust radius        =       0.0158973851 bohr
     new conv_thr            =       0.0001000000 Ry

     new unit-cell volume =    306.89353 a.u.^3 (    45.47693 Ang^3 )

CELL_PARAMETERS (alat=  7.60545813)
   0.995493233   0.000000000   0.000000000
   0.497746616   0.862122429   0.000000000
   0.497746616   0.287374143   0.812838631

ATOMIC_POSITIONS (crystal)
Na       0.000000000   0.000000000   0.000000000
Cl       0.500000000   0.500000000   0.500000000



     Writing output data file Prototype-La-cF8-NaCl.save
     NEW-OLD atomic charge density approx. for the potential
     NEW k-points: (use verbosity='high' to print them)
     extrapolated charge   31.82312, renormalised to   32.00000

     total cpu time spent up to now is      265.1 secs

     Self-consistent Calculation

     iteration #  1     ecut=    40.00 Ry     beta=0.70
     CG style diagonalization
     c_bands:  1 eigenvalues not converged
     ethr =  1.00E-06,  avg # of iterations =  6.7

     total cpu time spent up to now is      287.0 secs

     total energy              =    -322.18022779 Ry
     Harris-Foulkes estimate   =    -322.57510114 Ry
     estimated scf accuracy    <       0.09235764 Ry

     iteration #  2     ecut=    40.00 Ry     beta=0.70
     CG style diagonalization
     ethr =  2.89E-04,  avg # of iterations =  3.8

     total cpu time spent up to now is      301.8 secs

     total energy              =    -322.20231188 Ry
     Harris-Foulkes estimate   =    -322.25790215 Ry
     estimated scf accuracy    <       0.10645240 Ry

     iteration #  3     ecut=    40.00 Ry     beta=0.70
     CG style diagonalization
     ethr =  2.89E-04,  avg # of iterations =  3.5

     total cpu time spent up to now is      316.8 secs

     total energy              =    -322.22372166 Ry
     Harris-Foulkes estimate   =    -322.22394255 Ry
     estimated scf accuracy    <       0.00039823 Ry

     iteration #  4     ecut=    40.00 Ry     beta=0.70
     CG style diagonalization
     c_bands:  1 eigenvalues not converged
     ethr =  1.24E-06,  avg # of iterations =  4.8

     total cpu time spent up to now is      333.2 secs

     total energy              =    -322.22420514 Ry
     Harris-Foulkes estimate   =    -322.22427900 Ry
     estimated scf accuracy    <       0.00014289 Ry

     iteration #  5     ecut=    40.00 Ry     beta=0.70
     CG style diagonalization
     ethr =  4.47E-07,  avg # of iterations =  3.5

     total cpu time spent up to now is      345.5 secs

     End of self-consistent calculation

     Number of k-points >= 100: set verbosity='high' to print the bands.

     the Fermi energy is    20.8294 ev

!    total energy              =    -322.22423358 Ry
     Harris-Foulkes estimate   =    -322.22424412 Ry
     estimated scf accuracy    <       0.00001300 Ry

     The total energy is the sum of the following terms:

     one-electron contribution =     -62.37262889 Ry
     hartree contribution      =      51.07218461 Ry
     xc contribution           =     -33.56175826 Ry
     ewald contribution        =    -277.22088243 Ry
     smearing contrib. (-TS)   =      -0.14114861 Ry

     convergence has been achieved in   5 iterations

     Forces acting on atoms (Ry/au):

     atom    1 type  1   force =     0.00000000    0.00000000    0.00000000
     atom    2 type  2   force =     0.00000000    0.00000000    0.00000000

     Total force =     0.000000     Total SCF correction =     0.000000


     entering subroutine stress ...

          total   stress  (Ry/bohr**3)                   (kbar)     P=   46.34
   0.00031457   0.00000000   0.00000000         46.27      0.00      0.00
   0.00000000   0.00031457   0.00000000          0.00     46.27      0.00
   0.00000000   0.00000000   0.00031585          0.00      0.00     46.46


     number of scf cycles    =   2
     number of bfgs steps    =   1

     enthalpy old            =    -322.2246171016 Ry
     enthalpy new            =    -322.2242335832 Ry

     CASE: enthalpy_new > enthalpy_old

     new trust radius        =       0.0052597497 bohr

     trust_radius < trust_radius_min

     resetting bfgs history

     new conv_thr            =       0.0001000000 Ry

     new unit-cell volume =    306.87473 a.u.^3 (    45.47414 Ang^3 )

CELL_PARAMETERS (alat=  7.60545813)
   0.995472951   0.000000000   0.000000000
   0.497736476   0.862104865   0.000000000
   0.497736476   0.287368288   0.812821972

ATOMIC_POSITIONS (crystal)
Na       0.000000000   0.000000000   0.000000000
Cl       0.500000000   0.500000000   0.500000000



     Writing output data file Prototype-La-cF8-NaCl.save
     NEW-OLD atomic charge density approx. for the potential
     NEW k-points: (use verbosity='high' to print them)
     extrapolated charge   31.99920, renormalised to   32.00000

     total cpu time spent up to now is      348.7 secs

     Self-consistent Calculation

     iteration #  1     ecut=    40.00 Ry     beta=0.70
     CG style diagonalization
     ethr =  1.00E-06,  avg # of iterations =  3.0

     Threshold (ethr) on eigenvalues was too large:
     Diagonalizing with lowered threshold

     CG style diagonalization
     ethr =  5.24E-08,  avg # of iterations =  3.3

     total cpu time spent up to now is      375.2 secs

     End of self-consistent calculation

     Number of k-points >= 100: set verbosity='high' to print the bands.

     the Fermi energy is    20.8383 ev

!    total energy              =    -322.22422473 Ry
     Harris-Foulkes estimate   =    -322.22568892 Ry
     estimated scf accuracy    <       0.00002166 Ry

     The total energy is the sum of the following terms:

     one-electron contribution =     -62.31300411 Ry
     hartree contribution      =      51.01006451 Ry
     xc contribution           =     -33.55371008 Ry
     ewald contribution        =    -277.22654165 Ry
     smearing contrib. (-TS)   =      -0.14103341 Ry

     convergence has been achieved in   1 iterations

     Forces acting on atoms (Ry/au):

     atom    1 type  1   force =     0.00000000    0.00000000    0.00000000
     atom    2 type  2   force =     0.00000000    0.00000000    0.00000000

     Total force =     0.000000     Total SCF correction =     0.000000


     entering subroutine stress ...

          total   stress  (Ry/bohr**3)                   (kbar)     P=   21.77
   0.00014758   0.00000000   0.00000000         21.71      0.00      0.00
   0.00000000   0.00014758   0.00000000          0.00     21.71      0.00
   0.00000000   0.00000000   0.00014882          0.00      0.00     21.89


     number of scf cycles    =   3
     number of bfgs steps    =   1

     enthalpy old            =    -322.2246171016 Ry
     enthalpy new            =    -322.2242247319 Ry

     CASE: enthalpy_new > enthalpy_old

     new trust radius        =       0.0052506893 bohr

     trust_radius < trust_radius_min

     resetting bfgs history

     Message from routine bfgs:
     history already reset at previous step: stopping
     new conv_thr            =       0.0001000000 Ry

     new unit-cell volume =    306.87465 a.u.^3 (    45.47413 Ang^3 )

CELL_PARAMETERS (alat=  7.60545813)
   0.995472858   0.000000000   0.000000000
   0.497736429   0.862104784   0.000000000
   0.497736429   0.287368261   0.812821898

ATOMIC_POSITIONS (crystal)
Na       0.000000000   0.000000000   0.000000000
Cl       0.500000000   0.500000000   0.500000000



     Writing output data file Prototype-La-cF8-NaCl.save
     NEW-OLD atomic charge density approx. for the potential
     NEW k-points: (use verbosity='high' to print them)
     extrapolated charge   32.00000, renormalised to   32.00000

     total cpu time spent up to now is      379.1 secs

     Self-consistent Calculation

     iteration #  1     ecut=    40.00 Ry     beta=0.70
     CG style diagonalization
     ethr =  1.00E-06,  avg # of iterations =  3.2

     total cpu time spent up to now is      390.4 secs

     End of self-consistent calculation

     Number of k-points >= 100: set verbosity='high' to print the bands.

     the Fermi energy is    20.8346 ev

!    total energy              =    -322.22419464 Ry
     Harris-Foulkes estimate   =    -322.22426276 Ry
     estimated scf accuracy    <       0.00006671 Ry

     The total energy is the sum of the following terms:

     one-electron contribution =     -62.39846434 Ry
     hartree contribution      =      51.10686540 Ry
     xc contribution           =     -33.56505996 Ry
     ewald contribution        =    -277.22656733 Ry
     smearing contrib. (-TS)   =      -0.14096841 Ry

     convergence has been achieved in   1 iterations

     Forces acting on atoms (Ry/au):

     atom    1 type  1   force =     0.00000000    0.00000000    0.00000000
     atom    2 type  2   force =     0.00000000    0.00000000    0.00000000

     Total force =     0.000000     Total SCF correction =     0.000000


     entering subroutine stress ...

          total   stress  (Ry/bohr**3)                   (kbar)     P=   56.05
   0.00038060   0.00000000   0.00000000         55.99      0.00      0.00
   0.00000000   0.00038060   0.00000000          0.00     55.99      0.00
   0.00000000   0.00000000   0.00038188          0.00      0.00     56.18


     The maximum number of steps has been reached.

     End of BFGS Geometry Optimization
Begin final coordinates
     new unit-cell volume =    306.87465 a.u.^3 (    45.47413 Ang^3 )

CELL_PARAMETERS (alat=  7.60545813)
   0.995472858   0.000000000   0.000000000
   0.497736429   0.862104784   0.000000000
   0.497736429   0.287368261   0.812821898

ATOMIC_POSITIONS (crystal)
Na       0.000000000   0.000000000   0.000000000
Cl       0.500000000   0.500000000   0.500000000
End final coordinates



     A final scf calculation at the relaxed structure.
     The G-vectors are recalculated for the final unit cell
     Results may differ from those at the preceding step.
 
     Parallelization info
     --------------------
     sticks:   dense  smooth     PW     G-vecs:    dense   smooth      PW
     Min         159     159     52                 2621     2621     497
     Max         160     160     54                 2624     2624     498
     Sum         637     637    211                10489    10489    1989
 


     bravais-lattice index     =            0
     lattice parameter (alat)  =       7.6055  a.u.
     unit-cell volume          =     306.8746 (a.u.)^3
     number of atoms/cell      =            2
     number of atomic types    =            2
     number of electrons       =        32.00
     number of Kohn-Sham states=           20
     kinetic-energy cutoff     =      40.0000  Ry
     charge density cutoff     =     160.0000  Ry
     convergence threshold     =      1.0E-04
     mixing beta               =       0.7000
     number of iterations used =            8  plain     mixing
     Exchange-correlation      = SLA-PZ-NOGX-NOGC ( 1 1 0 0 0)
     EXX-fraction              =        0.00

     celldm(1)=   7.605458  celldm(2)=   0.000000  celldm(3)=   0.000000
     celldm(4)=   0.000000  celldm(5)=   0.000000  celldm(6)=   0.000000

     crystal axes: (cart. coord. in units of alat)
               a(1) = (   0.995473   0.000000   0.000000 )  
               a(2) = (   0.497736   0.862105   0.000000 )  
               a(3) = (   0.497736   0.287368   0.812822 )  

     reciprocal axes: (cart. coord. in units 2 pi/alat)
               b(1) = (  1.004548 -0.579976 -0.410094 )  
               b(2) = (  0.000000  1.159952 -0.410094 )  
               b(3) = (  0.000000  0.000000  1.230282 )  


     PseudoPot. # 1 for Pr read from file:
     /home/cwx6513/pp.La/Pr.UPF
     MD5 check sum: 70e2b4b153859e92c8c91247dfc63203
     Pseudo is Norm-conserving, Zval = 13.0
     Generated in analytical, separable form
     Using radial grid of 1255 points,  6 beta functions with: 
                l(1) =   0
                l(2) =   0
                l(3) =   1
                l(4) =   1
                l(5) =   2
                l(6) =   3

     PseudoPot. # 2 for Tb read from file:
     /home/cwx6513/pp.La/Tb.UPF
     MD5 check sum: 3d6088a3f0cf7fd2e110c43f7f8e95c2
     Pseudo is Norm-conserving, Zval = 19.0
     Generated in analytical, separable form
     Using radial grid of 1263 points,  6 beta functions with: 
                l(1) =   0
                l(2) =   0
                l(3) =   1
                l(4) =   1
                l(5) =   2
                l(6) =   3

     atomic species   valence    mass     pseudopotential
        Na            13.00    22.98970     Pr( 1.00)
        Cl            19.00    35.45300     Tb( 1.00)

     12 Sym. Ops., with inversion, found



   Cartesian axes

     site n.     atom                  positions (alat units)
         1           Na  tau(   1) = (   0.0000000   0.0000000   0.0000000  )
         2           Cl  tau(   2) = (   0.9954729   0.5747365   0.4064109  )

     number of k points=   496  gaussian smearing, width (Ry)=  0.1000

     Number of k-points >= 100: set verbosity='high' to print them.

     Dense  grid:    10489 G-vectors     FFT dimensions: (  32,  32,  32)

     Largest allocated arrays     est. size (Mb)     dimensions
        Kohn-Sham Wavefunctions         0.10 Mb     (    341,   20)
        NL pseudopotentials             0.21 Mb     (    341,   40)
        Each V/rho on FFT grid          0.12 Mb     (   8192)
        Each G-vector array             0.02 Mb     (   2624)
        G-vector shells                 0.01 Mb     (    722)
     Largest temporary arrays     est. size (Mb)     dimensions
        Each subspace H/S matrix        0.01 Mb     (  20,  20)
        Each <psi_i|beta_j> matrix      0.01 Mb     (     40,   20)
        Arrays for rho mixing           1.00 Mb     (   8192,   8)

     Initial potential from superposition of free atoms
     Check: negative starting charge=   -0.000107

     starting charge   12.99054, renormalised to   32.00000

     negative rho (up, down):  0.264E-03 0.000E+00
     Starting wfc are   20 randomized atomic wfcs

     Writing output data file Prototype-La-cF8-NaCl.save

     total cpu time spent up to now is      397.5 secs

     Self-consistent Calculation

     iteration #  1     ecut=    40.00 Ry     beta=0.70
     CG style diagonalization
     c_bands:  5 eigenvalues not converged
     c_bands:  2 eigenvalues not converged
     c_bands:  2 eigenvalues not converged
     c_bands:  2 eigenvalues not converged
     c_bands:  5 eigenvalues not converged
     c_bands:  4 eigenvalues not converged
     c_bands:  5 eigenvalues not converged
     c_bands:  1 eigenvalues not converged
     c_bands:  1 eigenvalues not converged
     c_bands:  3 eigenvalues not converged
     c_bands:  5 eigenvalues not converged
     c_bands:  5 eigenvalues not converged
     c_bands:  1 eigenvalues not converged
     c_bands:  5 eigenvalues not converged
     c_bands:  1 eigenvalues not converged
     c_bands:  1 eigenvalues not converged
     c_bands:  2 eigenvalues not converged
     c_bands:  2 eigenvalues not converged
     c_bands:  4 eigenvalues not converged
     c_bands:  5 eigenvalues not converged
     c_bands:  5 eigenvalues not converged
     c_bands:  2 eigenvalues not converged
     c_bands:  5 eigenvalues not converged
     c_bands:  1 eigenvalues not converged
     c_bands:  3 eigenvalues not converged
     c_bands:  3 eigenvalues not converged
     c_bands:  1 eigenvalues not converged
     c_bands:  1 eigenvalues not converged
     c_bands:  2 eigenvalues not converged
     c_bands:  5 eigenvalues not converged
     c_bands:  2 eigenvalues not converged
     c_bands:  5 eigenvalues not converged
     c_bands:  1 eigenvalues not converged
     c_bands:  3 eigenvalues not converged
     c_bands:  1 eigenvalues not converged
     c_bands:  2 eigenvalues not converged
     c_bands:  1 eigenvalues not converged
     c_bands:  2 eigenvalues not converged
     c_bands:  5 eigenvalues not converged
     c_bands:  1 eigenvalues not converged
     c_bands:  5 eigenvalues not converged
     c_bands:  2 eigenvalues not converged
     c_bands:  1 eigenvalues not converged
     c_bands:  2 eigenvalues not converged
     c_bands:  2 eigenvalues not converged
     c_bands:  2 eigenvalues not converged
     c_bands:  5 eigenvalues not converged
     c_bands:  2 eigenvalues not converged
     c_bands:  2 eigenvalues not converged
     c_bands:  3 eigenvalues not converged
     c_bands:  5 eigenvalues not converged
     c_bands:  1 eigenvalues not converged
     c_bands:  1 eigenvalues not converged
     c_bands:  5 eigenvalues not converged
     c_bands:  1 eigenvalues not converged
     c_bands:  5 eigenvalues not converged
     c_bands:  2 eigenvalues not converged
     c_bands:  2 eigenvalues not converged
     c_bands:  5 eigenvalues not converged
     c_bands:  1 eigenvalues not converged
     c_bands:  4 eigenvalues not converged
     c_bands:  5 eigenvalues not converged
     c_bands:  3 eigenvalues not converged
     c_bands:  1 eigenvalues not converged
     c_bands:  1 eigenvalues not converged
     c_bands:  5 eigenvalues not converged
     c_bands:  2 eigenvalues not converged
     c_bands:  2 eigenvalues not converged
     c_bands:  3 eigenvalues not converged
     c_bands:  2 eigenvalues not converged
     c_bands:  1 eigenvalues not converged
     c_bands:  2 eigenvalues not converged
     c_bands:  1 eigenvalues not converged
     c_bands:  1 eigenvalues not converged
     c_bands:  1 eigenvalues not converged
     c_bands:  1 eigenvalues not converged
     c_bands:  1 eigenvalues not converged
     c_bands:  2 eigenvalues not converged
     c_bands:  1 eigenvalues not converged
     c_bands:  1 eigenvalues not converged
     c_bands:  5 eigenvalues not converged
     c_bands:  5 eigenvalues not converged
     c_bands:  2 eigenvalues not converged
     c_bands:  5 eigenvalues not converged
     c_bands:  2 eigenvalues not converged
     c_bands:  3 eigenvalues not converged
     c_bands:  5 eigenvalues not converged
     c_bands:  5 eigenvalues not converged
     c_bands:  1 eigenvalues not converged
     c_bands:  1 eigenvalues not converged
     c_bands:  5 eigenvalues not converged
     c_bands:  3 eigenvalues not converged
     c_bands:  4 eigenvalues not converged
     c_bands:  1 eigenvalues not converged
     c_bands:  1 eigenvalues not converged
     c_bands:  1 eigenvalues not converged
     c_bands:  5 eigenvalues not converged
     c_bands:  2 eigenvalues not converged
     c_bands:  2 eigenvalues not converged
     c_bands:  1 eigenvalues not converged
     c_bands:  2 eigenvalues not converged
     c_bands:  3 eigenvalues not converged
     c_bands:  1 eigenvalues not converged
     c_bands:  5 eigenvalues not converged
     c_bands:  1 eigenvalues not converged
     c_bands:  2 eigenvalues not converged
     c_bands:  2 eigenvalues not converged
     c_bands:  1 eigenvalues not converged
     c_bands:  3 eigenvalues not converged
     c_bands:  1 eigenvalues not converged
     c_bands:  2 eigenvalues not converged
     c_bands:  1 eigenvalues not converged
     c_bands:  5 eigenvalues not converged
     c_bands:  4 eigenvalues not converged
     c_bands:  1 eigenvalues not converged
     c_bands:  2 eigenvalues not converged
     c_bands:  1 eigenvalues not converged
     c_bands:  5 eigenvalues not converged
     c_bands:  1 eigenvalues not converged
     c_bands:  1 eigenvalues not converged
     c_bands:  1 eigenvalues not converged
     c_bands:  1 eigenvalues not converged
     c_bands:  5 eigenvalues not converged
     c_bands:  1 eigenvalues not converged
     c_bands:  1 eigenvalues not converged
     c_bands:  2 eigenvalues not converged
     c_bands:  1 eigenvalues not converged
     c_bands:  1 eigenvalues not converged
     c_bands:  2 eigenvalues not converged
     c_bands:  5 eigenvalues not converged
     c_bands:  1 eigenvalues not converged
     c_bands:  2 eigenvalues not converged
     c_bands:  1 eigenvalues not converged
     c_bands:  3 eigenvalues not converged
     c_bands:  1 eigenvalues not converged
     c_bands:  1 eigenvalues not converged
     c_bands:  1 eigenvalues not converged
     c_bands:  3 eigenvalues not converged
     c_bands:  1 eigenvalues not converged
     c_bands:  1 eigenvalues not converged
     c_bands:  1 eigenvalues not converged
     c_bands:  1 eigenvalues not converged
     c_bands:  1 eigenvalues not converged
     c_bands:  1 eigenvalues not converged
     c_bands:  1 eigenvalues not converged
     c_bands:  1 eigenvalues not converged
     c_bands:  1 eigenvalues not converged
     c_bands:  2 eigenvalues not converged
     c_bands:  1 eigenvalues not converged
     c_bands:  5 eigenvalues not converged
     c_bands:  5 eigenvalues not converged
     c_bands:  1 eigenvalues not converged
     c_bands:  1 eigenvalues not converged
     c_bands:  1 eigenvalues not converged
     c_bands:  1 eigenvalues not converged
     c_bands:  4 eigenvalues not converged
     c_bands:  5 eigenvalues not converged
     c_bands:  5 eigenvalues not converged
     c_bands:  2 eigenvalues not converged
     ethr =  1.00E-06,  avg # of iterations = 42.7

     negative rho (up, down):  0.786E-04 0.000E+00

     total cpu time spent up to now is      546.5 secs

     total energy              =    -130.76935336 Ry
     Harris-Foulkes estimate   =    -649.30097800 Ry
     estimated scf accuracy    <     625.14102000 Ry

     iteration #  2     ecut=    40.00 Ry     beta=0.70
     CG style diagonalization
     c_bands:  1 eigenvalues not converged
     c_bands:  1 eigenvalues not converged
     c_bands:  1 eigenvalues not converged
     ethr =  1.00E-02,  avg # of iterations = 11.1

     negative rho (up, down):  0.387E-04 0.000E+00

     total cpu time spent up to now is      579.5 secs

     total energy              =    -263.99075507 Ry
     Harris-Foulkes estimate   =    -421.23501139 Ry
     estimated scf accuracy    <     247.57954128 Ry

     iteration #  3     ecut=    40.00 Ry     beta=0.70
     CG style diagonalization
     c_bands:  1 eigenvalues not converged
     c_bands:  1 eigenvalues not converged
     c_bands:  1 eigenvalues not converged
     ethr =  1.00E-02,  avg # of iterations = 11.0

     negative rho (up, down):  0.307E-04 0.000E+00

     total cpu time spent up to now is      612.2 secs

     total energy              =    -326.22113974 Ry
     Harris-Foulkes estimate   =    -329.09073156 Ry
     estimated scf accuracy    <      14.67296694 Ry

     iteration #  4     ecut=    40.00 Ry     beta=0.70
     CG style diagonalization
     ethr =  1.00E-02,  avg # of iterations =  3.0

     total cpu time spent up to now is      621.9 secs

     total energy              =    -321.06032297 Ry
     Harris-Foulkes estimate   =    -326.40821924 Ry
     estimated scf accuracy    <       9.36118579 Ry

     iteration #  5     ecut=    40.00 Ry     beta=0.70
     CG style diagonalization
     ethr =  1.00E-02,  avg # of iterations =  4.1

     total cpu time spent up to now is      635.3 secs

     total energy              =    -322.05691335 Ry
     Harris-Foulkes estimate   =    -322.33060147 Ry
     estimated scf accuracy    <       0.37832412 Ry

     iteration #  6     ecut=    40.00 Ry     beta=0.70
     CG style diagonalization
     ethr =  1.18E-03,  avg # of iterations =  4.6

     total cpu time spent up to now is      649.7 secs

     total energy              =    -322.18762182 Ry
     Harris-Foulkes estimate   =    -322.24197632 Ry
     estimated scf accuracy    <       0.10585542 Ry

     iteration #  7     ecut=    40.00 Ry     beta=0.70
     CG style diagonalization
     ethr =  3.31E-04,  avg # of iterations =  3.7

     total cpu time spent up to now is      662.7 secs

     total energy              =    -322.21238837 Ry
     Harris-Foulkes estimate   =    -322.21437538 Ry
     estimated scf accuracy    <       0.00349868 Ry

     iteration #  8     ecut=    40.00 Ry     beta=0.70
     CG style diagonalization
     c_bands:  1 eigenvalues not converged
     c_bands:  1 eigenvalues not converged
     c_bands:  1 eigenvalues not converged
     c_bands:  1 eigenvalues not converged
     c_bands:  1 eigenvalues not converged
     c_bands:  1 eigenvalues not converged
     c_bands:  1 eigenvalues not converged
     c_bands:  1 eigenvalues not converged
     c_bands:  1 eigenvalues not converged
     c_bands:  1 eigenvalues not converged
     c_bands:  1 eigenvalues not converged
     c_bands:  1 eigenvalues not converged
     c_bands:  1 eigenvalues not converged
     c_bands:  1 eigenvalues not converged
     c_bands:  1 eigenvalues not converged
     c_bands:  1 eigenvalues not converged
     c_bands:  1 eigenvalues not converged
     c_bands:  1 eigenvalues not converged
     c_bands:  1 eigenvalues not converged
     ethr =  1.09E-05,  avg # of iterations =  4.7

     total cpu time spent up to now is      677.6 secs

     total energy              =    -322.21337534 Ry
     Harris-Foulkes estimate   =    -322.21419946 Ry
     estimated scf accuracy    <       0.00176039 Ry

     iteration #  9     ecut=    40.00 Ry     beta=0.70
     CG style diagonalization
     ethr =  5.50E-06,  avg # of iterations =  3.4

     total cpu time spent up to now is      690.8 secs

     End of self-consistent calculation

     Number of k-points >= 100: set verbosity='high' to print the bands.

     the Fermi energy is    20.8326 ev

!    total energy              =    -322.21364708 Ry
     Harris-Foulkes estimate   =    -322.21367447 Ry
     estimated scf accuracy    <       0.00003110 Ry

     The total energy is the sum of the following terms:

     one-electron contribution =     -62.30781250 Ry
     hartree contribution      =      51.01795082 Ry
     xc contribution           =     -33.55600789 Ry
     ewald contribution        =    -277.22656734 Ry
     smearing contrib. (-TS)   =      -0.14121017 Ry

     convergence has been achieved in   9 iterations

     Forces acting on atoms (Ry/au):

     atom    1 type  1   force =     0.00000000    0.00000000    0.00000000
     atom    2 type  2   force =     0.00000000    0.00000000    0.00000000

     Total force =     0.000000     Total SCF correction =     0.000000


     entering subroutine stress ...

          total   stress  (Ry/bohr**3)                   (kbar)     P=   20.17
   0.00013734   0.00000000   0.00000000         20.20      0.00      0.00
   0.00000000   0.00013734   0.00000000          0.00     20.20      0.00
   0.00000000   0.00000000   0.00013669          0.00      0.00     20.11


     Writing output data file Prototype-La-cF8-NaCl.save
 
     init_run     :      6.46s CPU      7.82s WALL (       2 calls)
     electrons    :    572.67s CPU    669.23s WALL (       5 calls)
     update_pot   :      0.66s CPU      0.68s WALL (       3 calls)
     forces       :      2.22s CPU      2.48s WALL (       5 calls)
     stress       :      7.39s CPU      7.66s WALL (       5 calls)

     Called by init_run:
     wfcinit      :      5.90s CPU      7.06s WALL (       2 calls)
     potinit      :      0.17s CPU      0.17s WALL (       2 calls)

     Called by electrons:
     c_bands      :    544.11s CPU    632.12s WALL (      28 calls)
     sum_band     :     28.47s CPU     36.61s WALL (      28 calls)
     v_of_rho     :      0.02s CPU      0.02s WALL (      32 calls)
     mix_rho      :      0.01s CPU      0.02s WALL (      28 calls)

     Called by c_bands:
     init_us_2    :      4.30s CPU      4.46s WALL (   33728 calls)
     ccgdiagg     :    456.33s CPU    521.26s WALL (   15076 calls)
     wfcrot       :     90.06s CPU    107.69s WALL (   15572 calls)

     Called by *cgdiagg:
     h_psi        :    440.45s CPU    511.53s WALL ( 1599089 calls)
     cdiaghg      :      2.11s CPU      2.76s WALL (   15572 calls)

     Called by h_psi:
     add_vuspsi   :     13.75s CPU     20.59s WALL ( 1599089 calls)

     General routines
     calbec       :     71.24s CPU     76.97s WALL ( 3187566 calls)
     fft          :      0.05s CPU      0.06s WALL (     153 calls)
     fftw         :    371.40s CPU    428.18s WALL ( 4067674 calls)
     davcio       :      1.84s CPU      8.56s WALL (   47616 calls)
 
     Parallel routines
     fft_scatter  :    195.90s CPU    214.01s WALL ( 4067827 calls)
 
     PWSCF        :  9m52.50s CPU    11m33.66s WALL

 
   This run was terminated on:  16:32: 0  22Mar2018            

=------------------------------------------------------------------------------=
   JOB DONE.
=------------------------------------------------------------------------------=
