
     Program PWSCF v.5.0.2 starts on 22Mar2018 at 10:10:21 

     This program is part of the open-source Quantum ESPRESSO suite
     for quantum simulation of materials; please cite
         "P. Giannozzi et al., J. Phys.:Condens. Matter 21 395502 (2009);
          URL http://www.quantum-espresso.org", 
     in publications or presentations arising from this work. More details at
     http://www.quantum-espresso.org/quote.php

     Parallel version (MPI), running on     4 processors
     R & G space division:  proc/nbgrp/npool/nimage =       4

     Current dimensions of program PWSCF are:
     Max number of different atomic species (ntypx) = 10
     Max number of k-points (npk) =  40000
     Max angular momentum in pseudopotentials (lmaxx) =  3
     Waiting for input...
     Reading input from standard input

     Subspace diagonalization in iterative solution of the eigenvalue problem:
     a serial algorithm will be used

 
     Parallelization info
     --------------------
     sticks:   dense  smooth     PW     G-vecs:    dense   smooth      PW
     Min         269     269     78                 9541     9541    1486
     Max         270     270     79                 9544     9544    1487
     Sum        1077    1077    315                38169    38169    5947
 


     bravais-lattice index     =            0
     lattice parameter (alat)  =       8.8008  a.u.
     unit-cell volume          =    1116.9454 (a.u.)^3
     number of atoms/cell      =           16
     number of atomic types    =            2
     number of electrons       =       360.00
     number of Kohn-Sham states=          216
     kinetic-energy cutoff     =      40.0000  Ry
     charge density cutoff     =     160.0000  Ry
     convergence threshold     =      1.0E-04
     mixing beta               =       0.7000
     number of iterations used =            8  plain     mixing
     Exchange-correlation      = SLA-PZ-NOGX-NOGC ( 1 1 0 0 0)
     EXX-fraction              =        0.00
     nstep                     =           50


     celldm(1)=   8.800765  celldm(2)=   0.000000  celldm(3)=   0.000000
     celldm(4)=   0.000000  celldm(5)=   0.000000  celldm(6)=   0.000000

     crystal axes: (cart. coord. in units of alat)
               a(1) = (   1.000000   0.000000   0.000000 )  
               a(2) = (   0.000000   1.083771   0.000000 )  
               a(3) = (   0.000000   0.000000   1.511935 )  

     reciprocal axes: (cart. coord. in units 2 pi/alat)
               b(1) = (  1.000000  0.000000  0.000000 )  
               b(2) = (  0.000000  0.922704  0.000000 )  
               b(3) = (  0.000000  0.000000  0.661404 )  


     PseudoPot. # 1 for Lu read from file:
     /home/cwx6513/pp.La/La.UPF
     MD5 check sum: 4fc038260c66a0bf25fb4835376efb80
     Pseudo is Norm-conserving, Zval = 25.0
     Generated in analytical, separable form
     Using radial grid of 1271 points,  6 beta functions with: 
                l(1) =   0
                l(2) =   0
                l(3) =   1
                l(4) =   1
                l(5) =   2
                l(6) =   3

     PseudoPot. # 2 for Pm read from file:
     /home/cwx6513/pp.La/Pm.UPF
     MD5 check sum: 0061344aafc48faba5d75831754de21b
     Pseudo is Norm-conserving, Zval = 15.0
     Generated in analytical, separable form
     Using radial grid of 1259 points,  6 beta functions with: 
                l(1) =   0
                l(2) =   0
                l(3) =   1
                l(4) =   1
                l(5) =   2
                l(6) =   3

     atomic species   valence    mass     pseudopotential
        Fe            25.00    55.84500     Lu( 1.00)
        C             15.00    12.01070     Pm( 1.00)

      8 Sym. Ops., with inversion, found ( 6 have fractional translation)



   Cartesian axes

     site n.     atom                  positions (alat units)
         1           Fe  tau(   1) = (   0.3472940   0.1827628   1.3947267  )
         2           Fe  tau(   2) = (   0.1527060   0.7246484   0.8731757  )
         3           Fe  tau(   3) = (   0.8472940   0.3591227   0.6387592  )
         4           Fe  tau(   4) = (   0.3396640   0.4879235   0.3779837  )
         5           Fe  tau(   5) = (   0.1527060   0.7246484   1.3947267  )
         6           Fe  tau(   6) = (   0.3472940   0.1827628   0.8731757  )
         7           Fe  tau(   7) = (   0.1603360   1.0298091   0.3779837  )
         8           Fe  tau(   8) = (   0.6527060   0.9010083   0.6387592  )
         9           Fe  tau(   9) = (   0.8472940   0.3591227   0.1172082  )
        10           Fe  tau(  10) = (   0.6603360   0.5958476   1.1339512  )
        11           Fe  tau(  11) = (   0.6527060   0.9010083   0.1172082  )
        12           Fe  tau(  12) = (   0.8396640   0.0539620   1.1339512  )
        13           C   tau(  13) = (   0.0000000   0.0000000   0.0000000  )
        14           C   tau(  14) = (   0.5000000   0.5418856   0.0000000  )
        15           C   tau(  15) = (   0.5000000   0.5418856   0.7559674  )
        16           C   tau(  16) = (   0.0000000   0.0000000   0.7559674  )

     number of k points=    12  gaussian smearing, width (Ry)=  0.1000
                       cart. coord. in units 2pi/alat
        k(    1) = (   0.0000000   0.0000000   0.0000000), wk =   0.0833333
        k(    2) = (   0.0000000   0.0000000   0.1653510), wk =   0.1666667
        k(    3) = (   0.0000000   0.0000000  -0.3307021), wk =   0.0833333
        k(    4) = (   0.0000000   0.3075680   0.0000000), wk =   0.1666667
        k(    5) = (   0.0000000   0.3075680   0.1653510), wk =   0.3333333
        k(    6) = (   0.0000000   0.3075680  -0.3307021), wk =   0.1666667
        k(    7) = (  -0.5000000   0.0000000   0.0000000), wk =   0.0833333
        k(    8) = (  -0.5000000   0.0000000   0.1653510), wk =   0.1666667
        k(    9) = (  -0.5000000   0.0000000  -0.3307021), wk =   0.0833333
        k(   10) = (  -0.5000000   0.3075680   0.0000000), wk =   0.1666667
        k(   11) = (  -0.5000000   0.3075680   0.1653510), wk =   0.3333333
        k(   12) = (  -0.5000000   0.3075680  -0.3307021), wk =   0.1666667

     Dense  grid:    38169 G-vectors     FFT dimensions: (  36,  40,  54)

     Largest allocated arrays     est. size (Mb)     dimensions
        Kohn-Sham Wavefunctions         3.99 Mb     (   1211,  216)
        NL pseudopotentials             5.91 Mb     (   1211,  320)
        Each V/rho on FFT grid          0.31 Mb     (  20160)
        Each G-vector array             0.07 Mb     (   9543)
        G-vector shells                 0.07 Mb     (   9543)
     Largest temporary arrays     est. size (Mb)     dimensions
        Each subspace H/S matrix        0.71 Mb     ( 216, 216)
        Each <psi_i|beta_j> matrix      1.05 Mb     (    320,  216)
        Arrays for rho mixing           2.46 Mb     (  20160,   8)

     Initial potential from superposition of free atoms

     Starting from uniform charge
     Starting wfc are    0 randomized atomic wfcs

     total cpu time spent up to now is        4.9 secs

     Self-consistent Calculation

     iteration #  1     ecut=    40.00 Ry     beta=0.70
     CG style diagonalization
     c_bands:  4 eigenvalues not converged
     c_bands:  4 eigenvalues not converged
     c_bands:  2 eigenvalues not converged
     c_bands:  3 eigenvalues not converged
     c_bands:  4 eigenvalues not converged
     c_bands:  4 eigenvalues not converged
     c_bands:  3 eigenvalues not converged
     c_bands:  3 eigenvalues not converged
     c_bands:  2 eigenvalues not converged
     c_bands:  4 eigenvalues not converged
     c_bands:  3 eigenvalues not converged
     c_bands:  3 eigenvalues not converged
     ethr =  1.00E-02,  avg # of iterations = 23.2

     total cpu time spent up to now is      218.9 secs

     total energy              =   -5195.74106337 Ry
     Harris-Foulkes estimate   =   -7158.29959264 Ry
     estimated scf accuracy    <    2426.15905918 Ry

     iteration #  2     ecut=    40.00 Ry     beta=0.70
     CG style diagonalization
     c_bands:  2 eigenvalues not converged
     c_bands:  1 eigenvalues not converged
     c_bands:  1 eigenvalues not converged
     ethr =  1.00E-02,  avg # of iterations = 10.4

     total cpu time spent up to now is      314.9 secs

     total energy              =   -5714.30413557 Ry
     Harris-Foulkes estimate   =   -6090.15605785 Ry
     estimated scf accuracy    <     539.21495293 Ry

     iteration #  3     ecut=    40.00 Ry     beta=0.70
     CG style diagonalization
     ethr =  1.00E-02,  avg # of iterations =  8.5

     total cpu time spent up to now is      391.9 secs

     total energy              =   -5865.58271279 Ry
     Harris-Foulkes estimate   =   -5966.44843102 Ry
     estimated scf accuracy    <     198.25128982 Ry

     iteration #  4     ecut=    40.00 Ry     beta=0.70
     CG style diagonalization
     ethr =  1.00E-02,  avg # of iterations =  5.0

     total cpu time spent up to now is      435.5 secs

     total energy              =   -5910.81913898 Ry
     Harris-Foulkes estimate   =   -5914.56515204 Ry
     estimated scf accuracy    <       6.67797689 Ry

     iteration #  5     ecut=    40.00 Ry     beta=0.70
     CG style diagonalization
     ethr =  1.85E-03,  avg # of iterations =  4.1

     total cpu time spent up to now is      469.7 secs

     total energy              =   -5912.67726488 Ry
     Harris-Foulkes estimate   =   -5913.15638213 Ry
     estimated scf accuracy    <       0.73490774 Ry

     iteration #  6     ecut=    40.00 Ry     beta=0.70
     CG style diagonalization
     c_bands:  1 eigenvalues not converged
     c_bands:  1 eigenvalues not converged
     c_bands:  1 eigenvalues not converged
     c_bands:  1 eigenvalues not converged
     ethr =  2.04E-04,  avg # of iterations =  4.5

     total cpu time spent up to now is      508.5 secs

     total energy              =   -5912.97865966 Ry
     Harris-Foulkes estimate   =   -5913.12077038 Ry
     estimated scf accuracy    <       0.28968841 Ry

     iteration #  7     ecut=    40.00 Ry     beta=0.70
     CG style diagonalization
     c_bands:  1 eigenvalues not converged
     ethr =  8.05E-05,  avg # of iterations =  3.7

     total cpu time spent up to now is      538.6 secs

     total energy              =   -5913.05007946 Ry
     Harris-Foulkes estimate   =   -5913.05163923 Ry
     estimated scf accuracy    <       0.00320488 Ry

     iteration #  8     ecut=    40.00 Ry     beta=0.70
     CG style diagonalization
     c_bands:  1 eigenvalues not converged
     c_bands:  1 eigenvalues not converged
     c_bands:  4 eigenvalues not converged
     c_bands:  1 eigenvalues not converged
     c_bands:  2 eigenvalues not converged
     c_bands:  2 eigenvalues not converged
     ethr =  8.90E-07,  avg # of iterations =  6.1

     total cpu time spent up to now is      592.1 secs

     total energy              =   -5913.05451034 Ry
     Harris-Foulkes estimate   =   -5913.05504191 Ry
     estimated scf accuracy    <       0.00099414 Ry

     iteration #  9     ecut=    40.00 Ry     beta=0.70
     CG style diagonalization
     c_bands:  1 eigenvalues not converged
     c_bands:  2 eigenvalues not converged
     c_bands:  1 eigenvalues not converged
     ethr =  2.76E-07,  avg # of iterations =  3.7

     total cpu time spent up to now is      621.4 secs

     End of self-consistent calculation

          k = 0.0000 0.0000 0.0000 (  4785 PWs)   bands (ev):

   -79.6348 -79.6171 -79.6077 -79.5778 -79.5749 -79.5745 -79.5540 -79.5493
   -79.4722 -79.4648 -79.4497 -79.3890 -36.5535 -36.5100 -36.3699 -36.3477
   -36.3373 -36.3196 -36.2034 -36.1922 -36.1755 -36.1573 -36.1486 -36.0772
   -35.2616 -35.2611 -35.2563 -35.2421 -35.1685 -35.1366 -35.1316 -35.0982
   -35.0619 -35.0459 -35.0286 -35.0231 -35.0045 -34.9086 -34.8751 -34.8639
   -34.8373 -34.8319 -34.7611 -34.7579 -34.7521 -34.7493 -34.6508 -34.6419
    -3.6434  -3.2858  -2.8811  -2.5063  13.5021  13.6159  13.7816  14.0889
    14.5423  14.5747  15.6726  15.8982  16.0868  16.4207  16.8962  16.9742
    20.9707  21.0288  21.3813  21.6159  21.7470  21.8190  22.2423  22.4806
    22.7655  22.7824  22.8603  22.8995  22.9426  22.9535  23.0701  23.1420
    23.4731  23.5397  23.5819  23.5894  23.8627  23.8959  24.0729  24.1827
    24.1992  24.2967  24.5146  24.5253  24.6332  24.6576  24.7284  24.7626
    24.8387  24.9880  24.9909  25.1452  25.1775  25.1823  25.2821  25.3933
    25.3947  25.4736  25.4737  25.7597  25.9446  26.1199  26.1878  26.2670
    26.3350  27.2479  27.4329  27.6406  27.7979  28.8825  28.8864  29.7000
    30.7385  30.8756  31.2551  31.5533  34.6110  37.5972  38.4059  39.3415
    39.7568  39.8752  39.9902  40.8225  41.9406  42.1379  42.2050  42.8095
    44.6883  44.8934  45.1142  45.1153  45.6872  45.8302  46.9462  47.0790
    47.6760  48.4641  48.8835  48.9695  49.9627  50.2274  50.3902  50.3977
    50.3981  50.5722  51.0876  51.4810  51.7037  51.8134  52.2376  52.5948
    53.4095  53.5158  53.5628  53.8955  53.9478  54.0821  54.4883  54.5919
    55.0758  55.9581  56.1646  56.4275  56.4806  57.0714  57.2444  57.7500
    58.4114  58.5094  58.5413  58.7766  59.3347  59.7909  59.8521  59.8615
    60.2371  60.5252  60.5715  60.7040  60.7549  61.1343  61.1712  61.1848
    61.2178  61.4396  62.5227  62.5651  62.6794  62.7145  62.7409  62.9985
    63.4175  63.7018  63.7091  64.0611  64.1026  64.2972  64.3335  64.5719
    64.9889  65.1496  66.0069  66.0479  66.0862  66.4502  66.7088  66.9052

          k = 0.0000 0.0000 0.1654 (  4759 PWs)   bands (ev):

   -79.6233 -79.6082 -79.5999 -79.5502 -79.5461 -79.5317 -79.5248 -79.5110
   -79.4749 -79.4348 -79.4029 -79.3501 -36.5479 -36.5135 -36.3640 -36.3504
   -36.3307 -36.3160 -36.1950 -36.1886 -36.1646 -36.1552 -36.1377 -36.0782
   -35.2533 -35.2440 -35.2416 -35.2351 -35.1682 -35.1425 -35.1275 -35.0998
   -35.0518 -35.0304 -35.0212 -35.0169 -34.9998 -34.9203 -34.8997 -34.8731
   -34.8057 -34.8006 -34.7651 -34.7575 -34.7543 -34.7467 -34.6391 -34.6363
    -3.5921  -3.3401  -2.8278  -2.5634  13.5288  13.6245  13.9268  14.1016
    14.6532  14.7646  15.6554  15.6735  16.0653  16.4033  16.5675  16.7874
    20.9767  21.0209  21.6439  21.7902  21.7926  21.8149  22.3253  22.4802
    22.5406  22.7496  22.8179  22.9229  22.9971  23.0854  23.0876  23.1118
    23.2166  23.5574  23.5604  23.7886  23.8609  23.9047  24.1229  24.2184
    24.2874  24.3496  24.3908  24.4039  24.5367  24.7081  24.7550  24.7564
    24.8697  24.9309  25.0369  25.0709  25.1992  25.2393  25.2707  25.4149
    25.5733  25.5848  25.6523  25.7967  25.8088  25.9884  26.0402  26.1423
    26.5568  27.4133  27.4437  27.5738  27.8235  28.9620  28.9645  29.3868
    30.5919  30.8992  30.9967  31.3183  34.9633  37.1917  37.8244  39.3980
    39.9982  40.3059  41.0815  41.1083  41.7053  42.3962  42.6654  42.7311
    43.6480  44.9226  45.0740  45.1177  46.4906  46.6975  47.0544  47.0816
    47.2281  47.9387  48.4241  48.4617  48.7532  49.1921  49.6538  50.3815
    50.7208  50.8982  51.3372  51.6054  51.8121  52.1120  52.2274  52.4032
    52.5333  53.4599  53.4725  53.7612  53.8433  55.1530  55.2887  55.3185
    55.6863  55.9026  56.0801  56.6562  56.9432  57.2670  57.4124  57.4585
    57.7720  58.1026  58.8544  59.0232  59.3990  59.6181  60.0376  60.3089
    60.3317  60.4035  60.5537  60.6178  60.7543  61.0088  61.0934  61.5229
    61.6519  61.8668  62.1104  62.3489  62.3522  62.7255  62.7369  63.3081
    63.3604  63.3619  63.8980  63.9096  63.9782  64.2007  64.6664  64.8802
    64.9959  65.4484  65.6530  65.7592  66.0995  66.2365  66.2701  66.8776

          k = 0.0000 0.0000-0.3307 (  4758 PWs)   bands (ev):

   -79.6327 -79.6327 -79.6179 -79.6179 -79.5141 -79.5141 -79.4999 -79.4999
   -79.4410 -79.4410 -79.3743 -79.3743 -36.5342 -36.5342 -36.3531 -36.3531
   -36.3236 -36.3236 -36.1901 -36.1901 -36.1617 -36.1617 -36.1074 -36.1074
   -35.2557 -35.2557 -35.2340 -35.2340 -35.1546 -35.1546 -35.1145 -35.1145
   -35.0387 -35.0387 -35.0118 -35.0118 -34.9763 -34.9763 -34.8936 -34.8936
   -34.7784 -34.7784 -34.7774 -34.7774 -34.7435 -34.7435 -34.6363 -34.6363
    -3.4680  -3.4680  -2.6980  -2.6980  13.5906  13.5906  14.0904  14.0904
    15.0656  15.0656  15.3389  15.3389  16.0883  16.0883  16.5574  16.5574
    20.9950  20.9950  21.7197  21.7197  22.0265  22.0265  22.3954  22.3954
    22.8038  22.8038  22.8278  22.8278  22.8911  22.8911  23.0565  23.0565
    23.4620  23.4620  23.5116  23.5116  24.0413  24.0413  24.0415  24.0415
    24.2791  24.2791  24.5443  24.5443  24.6461  24.6461  24.7204  24.7204
    24.8512  24.8512  25.1353  25.1353  25.2622  25.2622  25.5108  25.5108
    25.6113  25.6113  25.6697  25.6697  25.7553  25.7553  26.0351  26.0351
    26.9420  26.9420  27.5321  27.5321  28.5744  28.5744  29.0713  29.0713
    30.5675  30.5675  31.0228  31.0228  35.8617  35.8617  38.4692  38.4692
    41.1074  41.1074  41.3391  41.3391  41.8754  41.8754  42.8988  42.8988
    44.1001  44.1001  44.9994  44.9994  46.3824  46.3824  47.1618  47.1618
    48.1569  48.1569  48.3477  48.3477  48.5931  48.5931  48.7390  48.7390
    50.8416  50.8416  51.2978  51.2978  52.2272  52.2272  52.6690  52.6690
    52.7543  52.7543  53.4212  53.4212  53.8370  53.8370  55.9384  55.9384
    56.1815  56.1815  56.8688  56.8688  57.6246  57.6246  57.6856  57.6856
    58.2388  58.2388  58.4272  58.4272  59.7289  59.7289  60.0158  60.0158
    60.4151  60.4151  60.6865  60.6865  61.3349  61.3349  61.3409  61.3409
    61.4077  61.4077  61.8575  61.8576  62.0463  62.0463  63.1448  63.1449
    63.4419  63.4420  63.5222  63.5222  64.5144  64.5145  64.7258  64.7259
    65.0988  65.0988  65.1905  65.1906  66.6800  66.6800  66.7651  66.7654

          k = 0.0000 0.3076 0.0000 (  4761 PWs)   bands (ev):

   -79.6244 -79.6176 -79.5694 -79.5595 -79.5531 -79.5402 -79.5273 -79.5056
   -79.4727 -79.4433 -79.4085 -79.3625 -36.5054 -36.4583 -36.3929 -36.3726
   -36.3256 -36.3100 -36.2354 -36.2290 -36.1576 -36.1544 -36.1301 -36.0797
   -35.2590 -35.2529 -35.2439 -35.2323 -35.1519 -35.1358 -35.1268 -35.1048
   -35.0494 -35.0411 -35.0235 -35.0224 -34.9909 -34.9392 -34.8707 -34.8658
   -34.8297 -34.8243 -34.7504 -34.7428 -34.7295 -34.7200 -34.6704 -34.6615
    -3.4595  -3.0983  -3.0788  -2.7094  14.0226  14.0250  14.0458  14.5292
    14.5757  14.8014  15.3246  15.3585  15.5904  15.7732  16.1646  16.5613
    21.5361  21.7546  21.8918  21.9742  22.1066  22.2042  22.2180  22.4090
    22.6737  22.6928  22.7281  22.7349  22.9596  23.0383  23.0456  23.2801
    23.4482  23.5114  23.6118  23.6389  23.8488  23.9593  23.9613  23.9638
    24.0697  24.1555  24.2230  24.3671  24.4589  24.5573  24.5704  24.6343
    24.7250  24.7301  25.0967  25.1483  25.1622  25.2840  25.3155  25.4402
    25.5423  25.6256  25.6861  25.8669  26.0007  26.1052  26.2137  26.2954
    27.0677  27.4087  27.7431  28.0926  28.2303  28.5075  28.9105  29.6196
    29.6838  30.1459  30.2005  30.3813  35.7889  37.7379  39.3034  39.3163
    39.7693  40.1836  40.8035  40.9563  42.3364  42.8653  43.2787  43.4538
    44.5003  44.7350  44.9911  45.1924  45.6916  46.3529  46.7510  46.7750
    47.3309  47.3475  48.2137  48.6451  48.8615  49.0457  49.3436  49.4553
    49.5845  49.8115  50.4726  51.4447  51.4840  51.8279  52.2028  52.2039
    52.6670  52.8775  53.2131  54.1540  54.2230  54.7317  54.7654  55.6928
    56.1555  56.3034  56.5712  56.6773  56.7421  56.7506  57.5750  57.6971
    57.8262  58.4512  58.9665  59.1803  59.5538  59.6113  59.9282  60.1882
    60.6764  60.6998  60.8901  61.1462  61.3247  61.4844  61.6319  61.7306
    61.8113  62.2209  62.4870  62.8963  63.1816  63.1916  63.2622  63.7709
    63.7944  63.8866  64.2693  64.2868  64.2906  64.5137  64.7361  65.0526
    65.0993  65.4673  65.8480  65.9364  66.1482  66.3368  66.4434  66.5062

          k = 0.0000 0.3076 0.1654 (  4779 PWs)   bands (ev):

   -79.6401 -79.6342 -79.5991 -79.5875 -79.5854 -79.5513 -79.5396 -79.5170
   -79.4712 -79.4406 -79.4342 -79.4333 -36.5022 -36.4704 -36.3924 -36.3809
   -36.3336 -36.3120 -36.2397 -36.2306 -36.1613 -36.1425 -36.1312 -36.0962
   -35.2566 -35.2525 -35.2474 -35.2328 -35.1547 -35.1369 -35.1369 -35.1176
   -35.0438 -35.0309 -35.0278 -35.0235 -34.9906 -34.9356 -34.9162 -34.8925
   -34.8091 -34.8081 -34.7595 -34.7551 -34.7312 -34.7225 -34.6697 -34.6680
    -3.4092  -3.1535  -3.0271  -2.7657  14.0577  14.1288  14.2405  14.5445
    14.7112  14.8109  15.3827  15.3835  15.5581  15.6995  15.8148  16.1640
    21.7400  21.7654  21.9125  21.9963  22.1211  22.2319  22.3835  22.4020
    22.4895  22.6950  22.7078  22.7668  22.9028  22.9578  23.0398  23.2007
    23.4969  23.5772  23.6277  23.6884  23.8849  23.8893  24.0237  24.0277
    24.1307  24.1698  24.2715  24.3890  24.4069  24.5014  24.5367  24.6625
    24.7582  24.9130  24.9904  25.1089  25.1141  25.3339  25.3416  25.4070
    25.5777  25.7248  25.7834  25.8690  25.9232  26.0208  26.0894  26.0967
    27.2858  27.6930  27.9108  28.1153  28.3079  28.5372  28.8659  29.3797
    29.6214  29.8337  30.0263  30.0658  36.0904  37.9217  38.0175  39.0091
    40.7091  40.9757  41.2938  41.4010  42.5049  42.9876  43.1111  43.6832
    43.9200  44.4683  44.9093  45.4370  46.3339  46.3566  46.3797  46.6317
    47.2308  47.6060  47.8723  48.0201  48.0718  48.1659  48.9483  49.7011
    49.9652  50.0787  50.6692  50.8200  51.0834  51.2145  51.9898  52.5895
    53.1373  53.4138  53.6927  54.0125  54.5520  54.6662  55.2709  55.4547
    55.9330  56.3139  56.4654  56.6036  56.9655  57.2728  57.4115  57.6778
    57.8120  59.0432  59.1003  59.4096  59.4674  59.5643  59.8069  59.8656
    60.5310  60.5657  60.6440  61.0504  61.4845  61.8301  61.9514  62.0629
    62.3310  62.4046  62.4990  62.7965  62.8467  62.9850  63.1699  63.4118
    63.6886  63.7090  63.8805  63.9546  64.3348  64.6921  64.8022  64.8980
    65.0990  65.3222  65.5938  65.6004  66.1601  66.1860  66.4260  66.4639

          k = 0.0000 0.3076-0.3307 (  4780 PWs)   bands (ev):

   -79.6336 -79.6336 -79.6161 -79.6161 -79.5541 -79.5541 -79.5179 -79.5179
   -79.4628 -79.4628 -79.4380 -79.4380 -36.4893 -36.4893 -36.3853 -36.3853
   -36.3180 -36.3180 -36.2388 -36.2388 -36.1436 -36.1436 -36.1216 -36.1216
   -35.2471 -35.2471 -35.2403 -35.2403 -35.1504 -35.1504 -35.1301 -35.1301
   -35.0300 -35.0300 -35.0172 -35.0172 -34.9631 -34.9631 -34.9234 -34.9234
   -34.7818 -34.7818 -34.7811 -34.7811 -34.7282 -34.7282 -34.6700 -34.6700
    -3.2828  -3.2828  -2.8985  -2.8985  14.1307  14.1307  14.5376  14.5376
    15.1151  15.1151  15.2582  15.2582  15.5379  15.5379  15.5463  15.5463
    21.7896  21.7896  21.9664  21.9664  22.3037  22.3037  22.3847  22.3847
    22.6521  22.6521  22.7422  22.7422  22.9147  22.9147  22.9203  22.9203
    23.6211  23.6211  23.6953  23.6953  23.9553  23.9553  23.9702  23.9702
    24.2136  24.2136  24.3652  24.3652  24.3984  24.3984  24.6123  24.6123
    24.8750  24.8750  24.9322  24.9322  25.3751  25.3751  25.4590  25.4590
    25.6787  25.6787  25.7181  25.7181  25.9185  25.9185  25.9880  25.9880
    27.8307  27.8307  27.9694  27.9694  28.6759  28.6759  28.8827  28.8827
    29.6160  29.6160  29.6680  29.6680  36.8757  36.8757  38.4130  38.4130
    41.4448  41.4448  41.8394  41.8394  42.9494  42.9494  43.2545  43.2545
    44.3405  44.3405  44.9508  44.9508  45.8034  45.8034  46.6329  46.6329
    47.2147  47.2147  47.2717  47.2717  48.4361  48.4361  49.2858  49.2858
    50.0235  50.0235  50.5267  50.5267  51.5302  51.5302  51.9808  51.9808
    52.4267  52.4267  54.5377  54.5377  55.2885  55.2885  55.3970  55.3970
    55.8799  55.8799  56.1522  56.1522  57.3624  57.3624  57.8698  57.8698
    58.6157  58.6157  59.1086  59.1086  59.6761  59.6761  60.0369  60.0369
    60.6947  60.6947  60.7133  60.7133  61.9032  61.9033  62.0551  62.0551
    62.3199  62.3199  62.5436  62.5436  62.7592  62.7592  63.2222  63.2223
    63.7273  63.7274  63.8118  63.8119  64.1169  64.1170  64.7492  64.7492
    65.2922  65.2923  65.3353  65.3355  66.2208  66.2209  66.4985  66.4988

          k =-0.5000 0.0000 0.0000 (  4798 PWs)   bands (ev):

   -79.6791 -79.6791 -79.6060 -79.6060 -79.5745 -79.5745 -79.5582 -79.5582
   -79.4550 -79.4550 -79.4408 -79.4408 -36.4837 -36.4837 -36.4451 -36.4451
   -36.2717 -36.2717 -36.2628 -36.2628 -36.1625 -36.1625 -36.0960 -36.0960
   -35.2713 -35.2713 -35.2389 -35.2389 -35.1454 -35.1454 -35.1186 -35.1186
   -35.0291 -35.0291 -35.0141 -35.0141 -34.9996 -34.9996 -34.8737 -34.8737
   -34.8542 -34.8542 -34.7607 -34.7607 -34.7478 -34.7478 -34.6491 -34.6491
    -3.2658  -3.2658  -2.9111  -2.9111  14.1460  14.1460  14.7577  14.7577
    14.8007  14.8007  14.9372  14.9372  15.2726  15.2726  16.3333  16.3333
    21.6198  21.6198  22.0430  22.0430  22.0531  22.0531  22.3450  22.3450
    22.6458  22.6458  22.6958  22.6958  22.9953  22.9953  23.0583  23.0583
    23.4294  23.4294  23.7348  23.7348  23.8842  23.8842  23.9943  23.9943
    24.3136  24.3136  24.3286  24.3286  24.3960  24.3960  24.5529  24.5529
    24.7934  24.7934  25.1594  25.1594  25.3004  25.3004  25.3752  25.3752
    25.4669  25.4669  25.7852  25.7852  26.0514  26.0514  26.4963  26.4963
    27.6559  27.6559  27.6904  27.6904  28.2095  28.2095  29.3045  29.3045
    29.3671  29.3671  29.9642  29.9642  37.2483  37.2483  39.3502  39.3502
    40.7935  40.7935  40.9480  40.9480  42.6925  42.6925  43.7251  43.7251
    44.6791  44.6791  44.9254  44.9254  45.5685  45.5685  46.8581  46.8581
    47.4104  47.4104  47.9849  47.9849  48.5328  48.5328  49.7275  49.7275
    49.7961  49.7961  50.8224  50.8224  51.1426  51.1426  52.3134  52.3134
    53.5666  53.5666  53.8098  53.8098  54.5447  54.5447  55.2181  55.2181
    56.2224  56.2224  57.1918  57.1918  57.3477  57.3477  57.6798  57.6798
    58.6441  58.6441  58.9179  58.9179  59.0743  59.0742  59.5811  59.5811
    60.2942  60.2942  60.4164  60.4164  61.2449  61.2449  61.3089  61.3089
    61.9354  61.9355  62.0162  62.0162  62.6663  62.6663  62.7400  62.7400
    63.9143  63.9144  63.9858  63.9858  64.0780  64.0780  64.5952  64.5952
    64.7398  64.7399  65.5031  65.5032  65.6725  65.6727  66.3652  66.3655

          k =-0.5000 0.0000 0.1654 (  4784 PWs)   bands (ev):

   -79.6734 -79.6734 -79.6093 -79.6093 -79.5476 -79.5476 -79.5233 -79.5233
   -79.4719 -79.4719 -79.4084 -79.4084 -36.4772 -36.4772 -36.4498 -36.4498
   -36.2775 -36.2775 -36.2561 -36.2561 -36.1448 -36.1448 -36.1001 -36.1001
   -35.2514 -35.2514 -35.2399 -35.2399 -35.1461 -35.1461 -35.1163 -35.1163
   -35.0290 -35.0290 -35.0175 -35.0175 -34.9895 -34.9895 -34.8988 -34.8988
   -34.8254 -34.8254 -34.7642 -34.7642 -34.7453 -34.7453 -34.6462 -34.6462
    -3.2155  -3.2155  -2.9644  -2.9644  14.3853  14.3853  14.7999  14.7999
    14.8416  14.8416  14.9125  14.9125  15.2132  15.2132  15.9645  15.9645
    21.8414  21.8414  22.0241  22.0241  22.1574  22.1574  22.2921  22.2921
    22.5102  22.5102  22.7443  22.7443  22.9511  22.9511  23.0702  23.0702
    23.3980  23.3980  23.6846  23.6846  23.9444  23.9444  24.1259  24.1259
    24.1953  24.1953  24.2980  24.2980  24.5133  24.5133  24.6244  24.6244
    24.7348  24.7348  25.0388  25.0388  25.3146  25.3146  25.3894  25.3894
    25.5392  25.5392  25.8707  25.8707  26.0696  26.0696  26.3205  26.3205
    27.8658  27.8658  27.9115  27.9115  28.3792  28.3792  29.0326  29.0326
    29.1635  29.1635  29.6850  29.6850  37.4371  37.4371  38.8014  38.8014
    41.2060  41.2060  41.6767  41.6767  42.8487  42.8487  43.7983  43.7983
    44.7061  44.7061  44.7856  44.7856  45.4399  45.4399  46.2270  46.2270
    47.0805  47.0805  47.6476  47.6476  49.2829  49.2829  49.3923  49.3923
    50.3117  50.3117  50.6866  50.6866  50.8054  50.8054  52.1536  52.1536
    53.5206  53.5206  53.9386  53.9386  54.3691  54.3691  55.6434  55.6434
    55.9677  55.9677  57.0026  57.0026  57.6534  57.6534  57.8286  57.8286
    58.3667  58.3667  58.7896  58.7896  59.2172  59.2172  59.7914  59.7914
    60.0659  60.0659  60.5481  60.5481  61.1472  61.1472  61.4857  61.4857
    62.0098  62.0099  62.1705  62.1705  62.9515  62.9515  63.1253  63.1254
    63.2521  63.2522  63.8550  63.8551  64.4067  64.4068  64.6252  64.6253
    64.8409  64.8410  65.7321  65.7324  66.0356  66.0358  66.3644  66.3648

          k =-0.5000 0.0000-0.3307 (  4788 PWs)   bands (ev):

   -79.6996 -79.6996 -79.6372 -79.6372 -79.5755 -79.5755 -79.4887 -79.4887
   -79.4709 -79.4709 -79.3939 -79.3939 -36.4755 -36.4755 -36.4511 -36.4511
   -36.2853 -36.2853 -36.2486 -36.2486 -36.1243 -36.1243 -36.1234 -36.1234
   -35.2499 -35.2499 -35.2323 -35.2323 -35.1454 -35.1454 -35.1210 -35.1210
   -35.0316 -35.0316 -35.0214 -35.0214 -34.9738 -34.9738 -34.9279 -34.9279
   -34.8089 -34.8089 -34.7745 -34.7745 -34.7487 -34.7487 -34.6418 -34.6418
    -3.0937  -3.0937  -3.0891  -3.0891  14.7738  14.7738  14.8489  14.8489
    14.8684  14.8684  14.9576  14.9576  15.2042  15.2042  15.3366  15.3366
    22.0195  22.0195  22.1031  22.1031  22.2032  22.2032  22.3313  22.3313
    22.3434  22.3434  22.7910  22.7910  22.9650  22.9650  22.9969  22.9969
    23.3015  23.3015  23.6642  23.6642  23.8681  23.8681  24.1488  24.1488
    24.2915  24.2915  24.4059  24.4059  24.5793  24.5793  24.6404  24.6404
    24.8342  24.8342  24.8558  24.8558  25.2655  25.2655  25.3294  25.3294
    25.7634  25.7634  25.9433  25.9433  26.0293  26.0293  26.0870  26.0870
    28.2560  28.2560  28.3698  28.3698  28.5289  28.5289  28.6703  28.6703
    28.7977  28.7977  29.2764  29.2764  37.7066  37.7066  38.3272  38.3271
    41.7653  41.7653  42.4440  42.4440  42.8908  42.8908  43.4967  43.4967
    44.3093  44.3093  44.9629  44.9629  45.6069  45.6069  46.1249  46.1249
    46.6077  46.6077  46.9403  46.9403  49.6771  49.6771  49.9957  49.9957
    50.0988  50.0988  50.4608  50.4608  50.6041  50.6041  52.2572  52.2572
    53.2600  53.2600  53.6907  53.6907  54.6414  54.6414  55.5262  55.5262
    55.8114  55.8114  56.7571  56.7571  57.7825  57.7825  58.5113  58.5113
    58.6197  58.6197  58.9488  58.9488  58.9726  58.9726  59.8307  59.8307
    60.3046  60.3046  60.5295  60.5295  60.8481  60.8481  61.3866  61.3866
    61.9679  61.9680  62.0566  62.0566  62.2594  62.2594  63.1527  63.1527
    63.7300  63.7300  64.2221  64.2222  64.2635  64.2636  65.1957  65.1959
    65.3397  65.3398  65.6059  65.6060  65.9728  65.9729  66.0226  66.0227

          k =-0.5000 0.3076 0.0000 (  4776 PWs)   bands (ev):

   -79.6481 -79.6481 -79.5807 -79.5807 -79.5729 -79.5729 -79.4997 -79.4997
   -79.4652 -79.4652 -79.4096 -79.4096 -36.4501 -36.4501 -36.4018 -36.4018
   -36.3063 -36.3063 -36.2928 -36.2928 -36.1593 -36.1593 -36.0823 -36.0823
   -35.2544 -35.2544 -35.2420 -35.2420 -35.1510 -35.1510 -35.1065 -35.1065
   -35.0268 -35.0268 -35.0150 -35.0150 -34.9922 -34.9922 -34.8774 -34.8774
   -34.8469 -34.8469 -34.7441 -34.7441 -34.7315 -34.7315 -34.6667 -34.6667
    -3.2612  -3.2612  -2.9054  -2.9054  14.0299  14.0299  14.0819  14.0819
    14.4693  14.4693  15.4395  15.4395  16.0090  16.0090  16.5079  16.5079
    21.1363  21.1363  21.9299  21.9299  22.0588  22.0588  22.2330  22.2330
    22.6790  22.6790  22.7894  22.7894  23.1231  23.1231  23.3098  23.3098
    23.4745  23.4745  23.6862  23.6862  23.7261  23.7261  24.0790  24.0790
    24.0924  24.0924  24.4048  24.4048  24.5214  24.5214  24.6446  24.6446
    24.9394  24.9394  25.2217  25.2217  25.3704  25.3704  25.5518  25.5518
    25.5672  25.5672  25.8106  25.8106  26.0541  26.0541  26.2360  26.2360
    27.0487  27.0487  27.3453  27.3453  27.7995  27.7995  29.2244  29.2244
    30.1356  30.1356  30.3573  30.3573  37.7719  37.7719  39.0259  39.0259
    40.5326  40.5326  41.7349  41.7349  41.9755  41.9755  43.7709  43.7709
    43.8899  43.8899  44.9465  44.9465  45.6694  45.6694  46.9996  46.9996
    47.2861  47.2861  48.2193  48.2193  48.5476  48.5476  49.2731  49.2731
    49.4527  49.4527  51.2638  51.2638  51.7726  51.7726  52.9230  52.9230
    53.6951  53.6951  53.7996  53.7996  54.4159  54.4159  54.9719  54.9719
    55.6451  55.6451  57.1937  57.1936  57.4207  57.4207  57.7415  57.7415
    58.3084  58.3084  58.3724  58.3724  59.5032  59.5032  59.6148  59.6148
    60.3575  60.3575  60.6370  60.6370  61.2600  61.2600  61.7398  61.7398
    61.7989  61.7990  62.3842  62.3842  62.8702  62.8703  62.8976  62.8977
    63.0854  63.0854  63.6904  63.6904  64.2350  64.2351  64.8273  64.8274
    65.3304  65.3304  65.3782  65.3783  65.7281  65.7282  66.0408  66.0411

          k =-0.5000 0.3076 0.1654 (  4784 PWs)   bands (ev):

   -79.6365 -79.6365 -79.6039 -79.6039 -79.5733 -79.5733 -79.5250 -79.5250
   -79.4615 -79.4615 -79.4225 -79.4225 -36.4456 -36.4456 -36.4075 -36.4075
   -36.3086 -36.3086 -36.2982 -36.2982 -36.1453 -36.1453 -36.0967 -36.0967
   -35.2534 -35.2534 -35.2405 -35.2405 -35.1516 -35.1516 -35.1209 -35.1209
   -35.0230 -35.0230 -35.0200 -35.0200 -34.9792 -34.9792 -34.9077 -34.9077
   -34.8214 -34.8214 -34.7613 -34.7613 -34.7236 -34.7236 -34.6688 -34.6688
    -3.2108  -3.2108  -2.9596  -2.9596  14.1101  14.1101  14.1588  14.1588
    14.5568  14.5568  15.4200  15.4200  15.9532  15.9532  16.1887  16.1887
    21.3774  21.3774  21.9564  21.9564  22.1137  22.1137  22.2095  22.2095
    22.4754  22.4754  22.7959  22.7959  23.1372  23.1372  23.2271  23.2271
    23.3985  23.3985  23.7062  23.7062  23.9067  23.9067  24.0582  24.0582
    24.2136  24.2136  24.3092  24.3092  24.5885  24.5885  24.6942  24.6942
    24.9206  24.9206  25.1509  25.1509  25.3736  25.3736  25.4932  25.4932
    25.6643  25.6643  25.7521  25.7521  26.0300  26.0300  26.1736  26.1736
    27.2269  27.2269  27.4178  27.4178  28.0439  28.0439  29.1423  29.1423
    29.9360  29.9360  29.9969  29.9969  38.0566  38.0566  39.0017  39.0017
    40.6528  40.6528  41.4716  41.4716  42.3808  42.3808  43.4416  43.4416
    44.3301  44.3301  44.9492  44.9492  45.8652  45.8652  46.5349  46.5349
    47.1606  47.1606  47.9468  47.9468  48.4448  48.4448  49.4713  49.4713
    49.6847  49.6847  50.9753  50.9753  51.8366  51.8366  52.1872  52.1872
    53.8077  53.8077  54.2028  54.2028  54.5331  54.5331  55.1118  55.1118
    55.8047  55.8047  56.5085  56.5085  57.1806  57.1806  57.6128  57.6128
    58.2566  58.2566  58.7882  58.7882  59.5742  59.5742  59.9689  59.9689
    60.2743  60.2743  60.8670  60.8670  61.2549  61.2549  61.6412  61.6412
    61.9301  61.9301  62.3643  62.3643  62.8466  62.8466  63.0258  63.0259
    63.4613  63.4613  64.1165  64.1166  64.2037  64.2038  64.5160  64.5160
    64.8306  64.8307  65.4763  65.4766  65.6273  65.6275  65.8888  65.8891

          k =-0.5000 0.3076-0.3307 (  4752 PWs)   bands (ev):

   -79.5993 -79.5993 -79.5901 -79.5901 -79.5295 -79.5295 -79.4803 -79.4803
   -79.4364 -79.4364 -79.3873 -79.3873 -36.4289 -36.4289 -36.4204 -36.4204
   -36.3017 -36.3017 -36.2947 -36.2947 -36.1127 -36.1127 -36.1073 -36.1073
   -35.2411 -35.2411 -35.2299 -35.2299 -35.1414 -35.1414 -35.1287 -35.1287
   -35.0173 -35.0173 -35.0145 -35.0145 -34.9524 -34.9524 -34.9288 -34.9288
   -34.7928 -34.7928 -34.7745 -34.7745 -34.7165 -34.7165 -34.6612 -34.6612
    -3.0877  -3.0877  -3.0854  -3.0854  14.1811  14.1811  14.1826  14.1826
    15.0257  15.0257  15.0862  15.0862  15.8672  15.8672  15.9177  15.9177
    21.7813  21.7813  21.7824  21.7824  22.2034  22.2034  22.2375  22.2375
    22.3087  22.3087  22.7495  22.7495  23.0221  23.0221  23.2473  23.2473
    23.3371  23.3371  23.8421  23.8421  23.9780  23.9780  24.0860  24.0860
    24.1747  24.1747  24.3743  24.3743  24.6256  24.6256  24.6549  24.6549
    24.9866  24.9866  25.1478  25.1478  25.2858  25.2858  25.4412  25.4412
    25.7041  25.7041  25.7475  25.7475  26.0113  26.0113  26.1062  26.1062
    27.4190  27.4190  27.5024  27.5024  28.5410  28.5410  28.8645  28.8645
    29.5958  29.5958  29.7155  29.7155  38.5124  38.5124  38.7451  38.7451
    41.0283  41.0283  41.1771  41.1771  42.7096  42.7096  43.7120  43.7120
    43.8915  43.8915  45.0513  45.0513  46.0248  46.0248  46.1274  46.1274
    47.2005  47.2005  47.9802  47.9802  48.4694  48.4694  49.2000  49.2000
    49.9387  49.9387  50.7229  50.7229  51.6834  51.6834  52.2821  52.2821
    53.2365  53.2365  53.7271  53.7271  54.9759  54.9759  55.7794  55.7794
    55.9831  55.9831  56.2353  56.2353  56.9185  56.9185  57.8359  57.8359
    58.5723  58.5723  58.6459  58.6459  59.7604  59.7604  59.7875  59.7875
    60.4204  60.4204  60.8733  60.8733  61.4590  61.4590  61.6549  61.6550
    61.6822  61.6822  62.4044  62.4045  62.8438  62.8439  63.1264  63.1264
    63.6487  63.6488  63.9847  63.9848  64.2329  64.2330  64.7726  64.7731
    64.8210  64.8210  65.4464  65.4469  65.4613  65.4613  66.3774  66.4289

     the Fermi energy is    59.1289 ev

!    total energy              =   -5913.05465868 Ry
     Harris-Foulkes estimate   =   -5913.05471357 Ry
     estimated scf accuracy    <       0.00007636 Ry

     The total energy is the sum of the following terms:

     one-electron contribution =    -581.27046455 Ry
     hartree contribution      =     782.54042924 Ry
     xc contribution           =    -501.75120013 Ry
     ewald contribution        =   -5612.05040792 Ry
     smearing contrib. (-TS)   =      -0.52301532 Ry

     convergence has been achieved in   9 iterations

     Forces acting on atoms (Ry/au):

     atom    1 type  1   force =     1.01713519   -1.12305850   -1.48030413
     atom    2 type  1   force =    -1.01713519   -1.12305850    1.48030413
     atom    3 type  1   force =     1.01713519    1.12305850   -1.48030413
     atom    4 type  1   force =    -1.76568982   -0.65727579    0.00000000
     atom    5 type  1   force =    -1.01713519   -1.12305850   -1.48030413
     atom    6 type  1   force =     1.01713519   -1.12305850    1.48030413
     atom    7 type  1   force =     1.76568982   -0.65727579    0.00000000
     atom    8 type  1   force =    -1.01713519    1.12305850   -1.48030413
     atom    9 type  1   force =     1.01713519    1.12305850    1.48030413
     atom   10 type  1   force =     1.76568982    0.65727579    0.00000000
     atom   11 type  1   force =    -1.01713519    1.12305850    1.48030413
     atom   12 type  1   force =    -1.76568982    0.65727579    0.00000000
     atom   13 type  2   force =     0.00000000    0.00000000    0.00000000
     atom   14 type  2   force =     0.00000000    0.00000000    0.00000000
     atom   15 type  2   force =     0.00000000    0.00000000    0.00000000
     atom   16 type  2   force =     0.00000000    0.00000000    0.00000000

     Total force =     7.077831     Total SCF correction =     0.000000


     entering subroutine stress ...

          total   stress  (Ry/bohr**3)                   (kbar)     P=12152.61
   0.08311474   0.00000000   0.00000000      12226.60      0.00      0.00
   0.00000000   0.08246881   0.00000000          0.00  12131.58      0.00
   0.00000000   0.00000000   0.08225180          0.00      0.00  12099.66


     BFGS Geometry Optimization

     number of scf cycles    =   1
     number of bfgs steps    =   0

     enthalpy new            =   -5913.0546586783 Ry

     new trust radius        =       0.5000000000 bohr
     new conv_thr            =       0.0001000000 Ry

     new unit-cell volume =   1385.06673 a.u.^3 (   205.24571 Ang^3 )

CELL_PARAMETERS (alat=  8.80076499)
   1.074803866   0.000000000   0.000000000
   0.000000000   1.164211371   0.000000000
   0.000000000   0.000000000   1.623859196

ATOMIC_POSITIONS (crystal)
Fe       0.351454679   0.164397128   0.918472992
Fe       0.148545321   0.664397128   0.581527008
Fe       0.851454679   0.335602872   0.418472992
Fe       0.332441294   0.447728178   0.250000000
Fe       0.148545321   0.664397128   0.918472992
Fe       0.351454679   0.164397128   0.581527008
Fe       0.167558706   0.947728178   0.250000000
Fe       0.648545321   0.835602872   0.418472992
Fe       0.851454679   0.335602872   0.081527008
Fe       0.667558706   0.552271822   0.750000000
Fe       0.648545321   0.835602872   0.081527008
Fe       0.832441294   0.052271822   0.750000000
C        0.000000000   0.000000000   0.000000000
C        0.500000000   0.500000000   0.000000000
C        0.500000000   0.500000000   0.500000000
C        0.000000000   0.000000000   0.500000000



     Writing output data file Prototype-La-oP16-Fe3C.save
     NEW-OLD atomic charge density approx. for the potential
     NEW k-points:
        k(    1) = (   0.0000000   0.0000000   0.0000000), wk =   0.0833333
        k(    2) = (   0.0000000   0.0000000   0.1539542), wk =   0.1666667
        k(    3) = (   0.0000000   0.0000000  -0.3079085), wk =   0.0833333
        k(    4) = (   0.0000000   0.2863169   0.0000000), wk =   0.1666667
        k(    5) = (   0.0000000   0.2863169   0.1539542), wk =   0.3333333
        k(    6) = (   0.0000000   0.2863169  -0.3079085), wk =   0.1666667
        k(    7) = (  -0.4652012   0.0000000   0.0000000), wk =   0.0833333
        k(    8) = (  -0.4652012   0.0000000   0.1539542), wk =   0.1666667
        k(    9) = (  -0.4652012   0.0000000  -0.3079085), wk =   0.0833333
        k(   10) = (  -0.4652012   0.2863169   0.0000000), wk =   0.1666667
        k(   11) = (  -0.4652012   0.2863169   0.1539542), wk =   0.3333333
        k(   12) = (  -0.4652012   0.2863169  -0.3079085), wk =   0.1666667

     total cpu time spent up to now is      633.0 secs

     Self-consistent Calculation

     iteration #  1     ecut=    40.00 Ry     beta=0.70
     CG style diagonalization
     c_bands:  1 eigenvalues not converged
     c_bands:  5 eigenvalues not converged
     c_bands:  4 eigenvalues not converged
     c_bands:  1 eigenvalues not converged
     c_bands:  2 eigenvalues not converged
     c_bands:  3 eigenvalues not converged
     c_bands:  2 eigenvalues not converged
     c_bands:  3 eigenvalues not converged
     c_bands:  2 eigenvalues not converged
     c_bands:  1 eigenvalues not converged
     ethr =  1.00E-06,  avg # of iterations = 26.6

     total cpu time spent up to now is      863.3 secs

     total energy              =   -5898.65964317 Ry
     Harris-Foulkes estimate   =   -5964.92817619 Ry
     estimated scf accuracy    <      80.94810185 Ry

     iteration #  2     ecut=    40.00 Ry     beta=0.70
     CG style diagonalization
     ethr =  1.00E-02,  avg # of iterations =  4.5

     total cpu time spent up to now is      900.0 secs

     total energy              =   -5916.85510846 Ry
     Harris-Foulkes estimate   =   -5941.84445793 Ry
     estimated scf accuracy    <      40.39078119 Ry

     iteration #  3     ecut=    40.00 Ry     beta=0.70
     CG style diagonalization
     ethr =  1.00E-02,  avg # of iterations =  3.8

     total cpu time spent up to now is      931.1 secs

     total energy              =   -5928.07126061 Ry
     Harris-Foulkes estimate   =   -5930.45685715 Ry
     estimated scf accuracy    <       4.61664123 Ry

     iteration #  4     ecut=    40.00 Ry     beta=0.70
     CG style diagonalization
     ethr =  1.28E-03,  avg # of iterations =  3.7

     total cpu time spent up to now is      961.1 secs

     total energy              =   -5929.36044592 Ry
     Harris-Foulkes estimate   =   -5929.38691856 Ry
     estimated scf accuracy    <       0.04213480 Ry

     iteration #  5     ecut=    40.00 Ry     beta=0.70
     CG style diagonalization
     c_bands:  1 eigenvalues not converged
     c_bands:  4 eigenvalues not converged
     c_bands:  2 eigenvalues not converged
     c_bands:  2 eigenvalues not converged
     c_bands:  2 eigenvalues not converged
     c_bands:  2 eigenvalues not converged
     ethr =  1.17E-05,  avg # of iterations =  5.5

     total cpu time spent up to now is     1009.3 secs

     total energy              =   -5929.39879966 Ry
     Harris-Foulkes estimate   =   -5929.40377784 Ry
     estimated scf accuracy    <       0.00814723 Ry

     iteration #  6     ecut=    40.00 Ry     beta=0.70
     CG style diagonalization
     c_bands:  2 eigenvalues not converged
     c_bands:  1 eigenvalues not converged
     c_bands:  1 eigenvalues not converged
     ethr =  2.26E-06,  avg # of iterations =  4.1

     total cpu time spent up to now is     1043.6 secs

     total energy              =   -5929.40058431 Ry
     Harris-Foulkes estimate   =   -5929.40140671 Ry
     estimated scf accuracy    <       0.00140720 Ry

     iteration #  7     ecut=    40.00 Ry     beta=0.70
     CG style diagonalization
     ethr =  3.91E-07,  avg # of iterations =  3.8

     total cpu time spent up to now is     1074.0 secs

     total energy              =   -5929.40098705 Ry
     Harris-Foulkes estimate   =   -5929.40109440 Ry
     estimated scf accuracy    <       0.00018845 Ry

     iteration #  8     ecut=    40.00 Ry     beta=0.70
     CG style diagonalization
     ethr =  5.23E-08,  avg # of iterations =  3.8

     total cpu time spent up to now is     1104.9 secs

     End of self-consistent calculation

          k = 0.0000 0.0000 0.0000 (  4785 PWs)   bands (ev):

   -89.1160 -89.0699 -89.0607 -89.0484 -89.0417 -89.0299 -88.9919 -88.9716
   -88.8518 -88.8441 -88.7814 -88.7048 -46.3775 -46.3727 -46.3520 -46.3440
   -46.3380 -46.3307 -46.2963 -46.2944 -46.1212 -46.1143 -46.1140 -46.1012
   -45.7914 -45.7905 -45.7896 -45.7869 -45.7298 -45.7271 -45.7260 -45.7138
   -45.6414 -45.6232 -45.5732 -45.5706 -45.5685 -45.5600 -45.5135 -45.5112
   -45.5105 -45.5086 -45.4979 -45.4933 -45.3376 -45.3330 -45.2839 -45.2799
   -10.7922 -10.6713 -10.5358 -10.4126   7.2976   7.3590   7.4852   7.7583
     8.1168   8.1811   8.6142   8.8110   8.8498   9.0483   9.3595   9.5020
    12.3704  12.5086  12.6819  12.7429  12.9060  12.9471  13.2155  13.4396
    13.4399  13.5718  13.5732  13.5974  13.6719  13.7276  13.7583  13.7732
    13.8480  13.8499  13.8668  14.0235  14.0369  14.1239  14.1930  14.2095
    14.2413  14.3612  14.4077  14.4454  14.6087  14.6158  14.6189  14.6429
    14.7773  14.7999  14.8181  14.8190  14.8258  14.8668  14.9397  15.0069
    15.0387  15.0852  15.0902  15.1429  15.1920  15.3629  15.4081  15.4383
    15.9217  16.5455  16.7212  16.8002  17.0045  17.5207  17.6394  18.1554
    18.6059  18.6958  18.9619  19.1078  25.2439  28.0043  28.3844  29.6400
    29.8652  30.0529  31.4720  31.6031  32.1887  32.1956  32.9453  32.9716
    34.1068  35.2816  35.6772  35.6897  35.8874  36.3185  36.5248  37.2912
    37.4769  37.5247  38.0180  38.1671  38.6689  39.3497  39.6585  39.7726
    39.9220  39.9719  40.2883  40.7199  40.9749  41.0874  41.5372  41.5777
    41.9172  42.6198  42.8210  43.0840  43.1109  43.3321  43.3861  43.4923
    44.0869  44.5227  44.5958  45.2204  45.9917  46.0185  46.6126  46.8872
    47.5400  47.7702  48.0999  49.2451  49.3021  49.3122  49.6394  49.9436
    50.1719  50.1763  50.2173  50.2287  50.6881  50.7330  51.1030  51.5065
    51.5134  51.6295  51.7246  51.7413  51.8010  51.8815  52.1283  52.3678
    52.6836  52.8262  53.2192  53.5360  53.6457  53.7320  53.8031  53.9996
    54.0008  54.1713  54.1735  54.6249  54.8460  54.9663  55.4301  55.6825

          k = 0.0000 0.0000 0.1540 (  4759 PWs)   bands (ev):

   -89.0970 -89.0915 -89.0492 -89.0082 -88.9946 -88.9431 -88.9271 -88.9046
   -88.8647 -88.8016 -88.7023 -88.6465 -46.3767 -46.3720 -46.3483 -46.3434
   -46.3349 -46.3261 -46.2936 -46.2911 -46.1135 -46.1130 -46.1104 -46.0979
   -45.7838 -45.7830 -45.7824 -45.7795 -45.7290 -45.7269 -45.7214 -45.7140
   -45.6320 -45.6147 -45.5936 -45.5865 -45.5449 -45.5423 -45.5159 -45.5122
   -45.5079 -45.5071 -45.4937 -45.4936 -45.3340 -45.3335 -45.2771 -45.2768
   -10.7752 -10.6866 -10.5185 -10.4308   7.3152   7.3664   7.5734   7.7594
     8.2305   8.2555   8.6228   8.7597   8.8087   9.0314   9.2576   9.2909
    12.3832  12.4860  12.7641  12.8845  12.8875  12.9836  13.2687  13.3349
    13.3970  13.5845  13.6009  13.6402  13.6618  13.6965  13.7142  13.7404
    13.7477  13.7845  13.8635  14.0795  14.1293  14.1687  14.2344  14.3026
    14.3076  14.3805  14.3831  14.4589  14.5647  14.5730  14.6061  14.6358
    14.7125  14.7278  14.7897  14.8207  14.9415  14.9554  14.9878  15.0468
    15.0744  15.0854  15.1360  15.1925  15.2010  15.3216  15.3226  15.3857
    16.0636  16.5953  16.6869  16.8724  17.0382  17.5920  17.6877  17.9934
    18.5397  18.7119  18.8150  18.9823  25.5192  27.4080  28.1996  29.5424
    30.2417  30.6808  31.6799  31.8850  32.4414  32.5499  32.7144  33.0532
    33.3554  35.1349  35.6940  35.7349  36.1951  36.5788  36.6124  37.2373
    37.3058  37.3683  37.3939  37.9354  38.2643  38.3434  39.1663  39.5490
    39.8613  40.2533  40.5893  40.7670  40.9823  41.2419  41.4204  42.0697
    42.6094  42.6655  42.9594  43.0353  43.1823  43.2214  43.5377  43.7415
    44.4208  44.8264  45.0498  45.3511  45.4437  46.5627  46.7129  47.5499
    47.7305  47.9478  47.9861  48.7014  49.1421  49.2071  49.4977  49.6916
    49.8288  50.0787  50.2287  50.2665  50.5326  50.7448  51.1111  51.2322
    51.2958  51.3387  51.3617  51.4288  51.9855  52.0987  52.1953  52.5645
    52.5752  52.8033  52.9617  53.2936  53.3387  53.5126  53.6401  53.8571
    54.2089  54.3233  54.4305  54.6998  55.0553  55.0956  55.2656  55.3542

          k = 0.0000 0.0000-0.3079 (  4758 PWs)   bands (ev):

   -89.1323 -89.1323 -89.0965 -89.0965 -88.9307 -88.9307 -88.8733 -88.8733
   -88.8112 -88.8112 -88.6702 -88.6702 -46.3757 -46.3757 -46.3428 -46.3428
   -46.3328 -46.3328 -46.2884 -46.2884 -46.1133 -46.1133 -46.1065 -46.1065
   -45.7864 -45.7864 -45.7792 -45.7792 -45.7249 -45.7249 -45.7185 -45.7185
   -45.6158 -45.6158 -45.6052 -45.6052 -45.5283 -45.5283 -45.5259 -45.5259
   -45.5087 -45.5087 -45.4908 -45.4908 -45.3317 -45.3317 -45.2764 -45.2764
   -10.7307 -10.7307 -10.4752 -10.4752   7.3505   7.3505   7.7111   7.7111
     8.4429   8.4429   8.5433   8.5433   8.8712   8.8712   9.1406   9.1406
    12.4298  12.4298  12.8200  12.8200  13.0886  13.0886  13.2422  13.2422
    13.5079  13.5079  13.5958  13.5958  13.6074  13.6074  13.6656  13.6656
    13.8195  13.8195  13.9363  13.9363  14.1890  14.1890  14.2431  14.2431
    14.3992  14.3992  14.4934  14.4934  14.5632  14.5632  14.6184  14.6184
    14.6298  14.6298  14.8996  14.8996  14.9386  14.9386  15.0558  15.0558
    15.1252  15.1252  15.1810  15.1810  15.2119  15.2119  15.2926  15.2926
    16.3810  16.3810  16.7480  16.7480  17.5215  17.5215  17.7178  17.7178
    18.5533  18.5533  18.8006  18.8006  26.2759  26.2759  28.7480  28.7480
    31.0211  31.0211  32.1703  32.1703  32.3522  32.3522  33.0290  33.0290
    33.7152  33.7152  35.7384  35.7384  36.5428  36.5428  36.7382  36.7382
    37.2973  37.2973  37.6410  37.6410  38.2094  38.2094  38.4933  38.4933
    40.4652  40.4652  40.5333  40.5333  41.2157  41.2157  41.9077  41.9077
    42.5040  42.5040  42.7419  42.7419  43.0685  43.0685  44.4973  44.4973
    44.7655  44.7655  45.9373  45.9373  46.3685  46.3685  47.0460  47.0460
    47.7237  47.7237  48.2329  48.2329  49.3439  49.3439  49.3449  49.3449
    49.8658  49.8658  50.1632  50.1632  50.2824  50.2824  50.5363  50.5363
    50.9638  50.9638  51.5475  51.5475  52.0440  52.0440  52.4543  52.4544
    52.6662  52.6662  53.1507  53.1507  53.3730  53.3730  53.4953  53.4953
    54.1368  54.1368  54.5782  54.5782  55.2797  55.2798  55.7458  55.7459

          k = 0.0000 0.2863 0.0000 (  4761 PWs)   bands (ev):

   -89.0823 -89.0621 -89.0589 -89.0242 -88.9722 -88.9600 -88.9377 -88.9151
   -88.8471 -88.7923 -88.7348 -88.6881 -46.3622 -46.3590 -46.3424 -46.3371
   -46.3366 -46.3319 -46.3083 -46.3062 -46.1179 -46.1138 -46.1111 -46.0977
   -45.7924 -45.7856 -45.7837 -45.7800 -45.7275 -45.7266 -45.7199 -45.7146
   -45.6349 -45.6244 -45.5712 -45.5678 -45.5609 -45.5606 -45.5104 -45.5067
   -45.5065 -45.5050 -45.5009 -45.4954 -45.3200 -45.3172 -45.2939 -45.2863
   -10.7294 -10.6058 -10.6010 -10.4774   7.6190   7.6393   7.6610   8.0095
     8.1048   8.2326   8.4137   8.4569   8.5749   8.7325   8.9999   9.2404
    12.7618  12.8543  12.9091  12.9189  13.0477  13.1240  13.2353  13.2884
    13.4750  13.4978  13.5160  13.6312  13.6716  13.7273  13.7636  13.7942
    13.8306  13.8360  13.8965  14.0508  14.1136  14.1290  14.1601  14.2496
    14.2842  14.3099  14.3127  14.3260  14.4842  14.4992  14.5232  14.5480
    14.6264  14.7215  14.7349  14.8077  14.8345  14.8492  14.9296  14.9920
    15.1582  15.1976  15.2166  15.2775  15.3204  15.3868  15.3953  15.4675
    16.3973  16.7899  16.8098  17.1400  17.2554  17.3751  17.6252  18.0550
    18.0618  18.3323  18.4341  18.5160  26.2226  28.0968  29.5175  29.5449
    29.6055  30.4341  30.7949  31.1983  32.6117  33.3508  33.3703  33.4999
    33.6922  34.6683  34.7857  35.4258  35.7211  36.1794  36.7761  36.7929
    36.9707  37.4855  37.5790  38.3129  38.4626  38.4722  38.9773  39.0938
    39.5152  39.7535  40.1070  40.4701  40.8555  41.3707  41.5659  42.2008
    42.2726  42.3938  42.8053  43.0077  43.6464  43.7672  44.0046  44.0419
    44.6464  44.9885  45.3601  45.5927  46.0062  46.6927  46.7195  46.8084
    47.7360  47.7445  48.0447  48.2761  48.2842  48.7086  49.1197  49.6973
    49.8142  50.1151  50.3312  50.3553  50.3966  50.5657  51.2844  51.5049
    51.5561  51.6798  52.0007  52.1999  52.2828  52.3321  52.8816  53.0221
    53.2710  53.3368  53.3554  53.4577  53.5692  54.0268  54.0505  54.2263
    54.2367  54.4111  54.5523  54.5613  54.8154  54.9408  55.1407  55.2586

          k = 0.0000 0.2863 0.1540 (  4779 PWs)   bands (ev):

   -89.1084 -89.0916 -89.0625 -89.0512 -89.0404 -88.9847 -88.9697 -88.9513
   -88.8554 -88.7948 -88.7808 -88.7573 -46.3646 -46.3617 -46.3453 -46.3428
   -46.3388 -46.3325 -46.3114 -46.3071 -46.1175 -46.1135 -46.1112 -46.1038
   -45.7914 -45.7895 -45.7833 -45.7799 -45.7292 -45.7265 -45.7235 -45.7184
   -45.6301 -45.6213 -45.5927 -45.5874 -45.5467 -45.5454 -45.5155 -45.5123
   -45.5109 -45.5067 -45.5011 -45.4991 -45.3241 -45.3209 -45.2940 -45.2902
   -10.7117 -10.6250 -10.5834 -10.4957   7.6390   7.6741   7.7767   8.0062
     8.1985   8.2487   8.4496   8.4724   8.5562   8.6854   8.8082   9.0119
    12.8514  12.8634  12.8910  12.9379  13.1051  13.1212  13.2211  13.2674
    13.4108  13.5126  13.5285  13.5966  13.6174  13.6395  13.6966  13.7203
    13.8891  13.8909  13.9791  14.0515  14.0922  14.1408  14.1996  14.2110
    14.2289  14.2621  14.4094  14.4179  14.4601  14.5484  14.5787  14.5804
    14.6056  14.6742  14.7484  14.8044  14.8157  14.8722  14.9721  14.9847
    15.1388  15.2192  15.2396  15.2793  15.3101  15.3293  15.3736  15.3928
    16.5449  16.8557  17.0576  17.1554  17.2405  17.4352  17.5963  17.9473
    18.0069  18.1675  18.3053  18.3196  26.4629  28.1888  28.2568  29.2728
    30.7716  30.8870  31.0020  31.6786  32.4439  33.1518  33.1600  33.5189
    34.0780  34.3006  34.7304  35.4119  35.9517  35.9880  36.3350  36.8954
    36.9687  37.3136  37.5044  37.7048  37.7320  38.3539  38.8817  39.3225
    39.6723  40.1465  40.3097  40.6171  40.8264  40.9705  41.7164  42.1516
    42.5445  42.6379  42.9041  43.2484  43.3005  43.7897  43.8271  44.5944
    44.7232  44.8003  45.5728  45.9632  46.0361  46.3910  46.4468  47.2108
    47.4962  47.7794  48.2297  48.3725  48.6541  49.0392  49.1117  49.2915
    49.6785  49.8348  50.1086  50.1893  50.7983  50.8101  51.3695  51.4711
    51.6966  51.8619  51.9502  52.0199  52.3614  52.4350  52.6404  52.6618
    52.7332  53.0609  53.1982  53.3830  53.4473  53.8313  53.9288  53.9520
    54.2723  54.2865  54.5169  54.8927  54.9918  55.0899  55.1020  55.2176

          k = 0.0000 0.2863-0.3079 (  4780 PWs)   bands (ev):

   -89.1144 -89.1144 -89.0556 -89.0556 -88.9933 -88.9933 -88.9637 -88.9637
   -88.8287 -88.8287 -88.7766 -88.7766 -46.3652 -46.3652 -46.3409 -46.3409
   -46.3348 -46.3348 -46.3117 -46.3117 -46.1122 -46.1122 -46.1104 -46.1104
   -45.7843 -45.7843 -45.7838 -45.7838 -45.7291 -45.7291 -45.7236 -45.7236
   -45.6120 -45.6120 -45.6054 -45.6054 -45.5310 -45.5310 -45.5282 -45.5282
   -45.5083 -45.5083 -45.5003 -45.5003 -45.3234 -45.3234 -45.2929 -45.2929
   -10.6686 -10.6686 -10.5402 -10.5402   7.6800   7.6800   7.9624   7.9624
     8.4021   8.4021   8.4998   8.4998   8.5630   8.5630   8.5906   8.5906
    12.8640  12.8640  12.9592  12.9592  13.1753  13.1753  13.1997  13.1997
    13.4593  13.4593  13.5685  13.5685  13.5861  13.5861  13.6031  13.6031
    13.9861  13.9861  14.0089  14.0089  14.1316  14.1316  14.1392  14.1392
    14.3722  14.3722  14.4047  14.4047  14.4676  14.4676  14.5678  14.5678
    14.6804  14.6804  14.7331  14.7331  14.9681  14.9681  14.9766  14.9766
    15.1964  15.1964  15.2084  15.2084  15.2870  15.2870  15.3688  15.3688
    16.9046  16.9046  17.0897  17.0897  17.5593  17.5593  17.6126  17.6126
    18.0434  18.0434  18.0446  18.0446  27.1490  27.1490  28.6914  28.6914
    31.4163  31.4163  31.5358  31.5358  32.9685  32.9685  32.9928  32.9928
    34.2564  34.2564  35.0578  35.0578  35.6635  35.6635  36.3662  36.3662
    37.0510  37.0510  37.1496  37.1496  38.5955  38.5955  38.7976  38.7976
    40.2404  40.2404  40.7289  40.7289  40.8826  40.8826  41.1995  41.1995
    42.3645  42.3645  43.5996  43.5996  43.8912  43.8912  44.5510  44.5510
    44.7676  44.7676  44.9947  44.9947  46.7184  46.7184  47.1429  47.1429
    47.7880  47.7880  48.4883  48.4883  48.9336  48.9336  49.1312  49.1312
    49.7161  49.7161  50.0653  50.0653  50.4356  50.4356  51.4339  51.4339
    51.6086  51.6086  51.6654  51.6654  52.3975  52.3975  52.5070  52.5070
    52.9294  52.9294  53.3601  53.3601  53.5375  53.5375  53.6085  53.6085
    54.5055  54.5056  54.6219  54.6219  55.1530  55.1531  55.4578  55.4580

          k =-0.4652 0.0000 0.0000 (  4798 PWs)   bands (ev):

   -89.1990 -89.1990 -89.0748 -89.0748 -89.0250 -89.0250 -89.0047 -89.0047
   -88.8092 -88.8092 -88.7745 -88.7745 -46.3695 -46.3695 -46.3607 -46.3607
   -46.3216 -46.3216 -46.3166 -46.3166 -46.1209 -46.1209 -46.1027 -46.1027
   -45.7954 -45.7954 -45.7837 -45.7837 -45.7273 -45.7273 -45.7214 -45.7214
   -45.6321 -45.6321 -45.5737 -45.5737 -45.5605 -45.5605 -45.5180 -45.5180
   -45.5109 -45.5109 -45.5066 -45.5066 -45.3371 -45.3371 -45.2852 -45.2852
   -10.6633 -10.6633 -10.5426 -10.5426   7.7549   7.7549   8.0338   8.0338
     8.1597   8.1597   8.2039   8.2039   8.4765   8.4765   9.1064   9.1064
    12.8386  12.8386  12.9229  12.9229  13.1183  13.1183  13.2268  13.2268
    13.4493  13.4493  13.6386  13.6386  13.6519  13.6519  13.7003  13.7003
    13.7998  13.7998  13.9315  13.9315  14.1525  14.1525  14.2133  14.2133
    14.3465  14.3465  14.3529  14.3529  14.4296  14.4296  14.5148  14.5148
    14.6275  14.6275  14.9446  14.9446  14.9630  14.9630  14.9781  14.9781
    15.0836  15.0836  15.1831  15.1831  15.3717  15.3717  15.5265  15.5265
    16.8801  16.8801  16.8853  16.8853  17.1604  17.1604  17.8012  17.8012
    17.9923  17.9923  18.1997  18.1997  27.4981  27.4981  29.5146  29.5146
    30.6677  30.6677  30.9002  30.9002  33.0951  33.0951  33.6821  33.6821
    33.9114  33.9114  35.0987  35.0987  35.6616  35.6616  36.4694  36.4694
    36.5127  36.5127  37.8435  37.8435  38.5073  38.5073  39.4868  39.4868
    39.6722  39.6722  40.6698  40.6698  40.8078  40.8078  41.6547  41.6547
    42.0920  42.0920  43.4649  43.4649  43.7756  43.7756  44.2170  44.2170
    44.7209  44.7209  45.8445  45.8445  47.0038  47.0038  47.4619  47.4619
    47.8784  47.8784  48.2309  48.2309  48.5398  48.5398  48.5490  48.5490
    49.4162  49.4162  49.4820  49.4820  50.8495  50.8495  50.9220  50.9220
    51.1503  51.1503  51.5256  51.5256  52.4074  52.4074  52.6713  52.6713
    53.0720  53.0720  53.4177  53.4177  53.8152  53.8152  53.9226  53.9227
    53.9396  53.9396  54.3014  54.3014  54.8669  54.8672  54.9886  54.9888

          k =-0.4652 0.0000 0.1540 (  4784 PWs)   bands (ev):

   -89.1557 -89.1557 -89.0646 -89.0646 -88.9903 -88.9903 -88.9673 -88.9673
   -88.8424 -88.8424 -88.7399 -88.7399 -46.3710 -46.3710 -46.3573 -46.3573
   -46.3237 -46.3237 -46.3130 -46.3130 -46.1120 -46.1120 -46.1030 -46.1030
   -45.7861 -45.7861 -45.7844 -45.7844 -45.7267 -45.7267 -45.7184 -45.7184
   -45.6264 -45.6264 -45.5863 -45.5863 -45.5446 -45.5446 -45.5171 -45.5171
   -45.5135 -45.5135 -45.5088 -45.5088 -45.3347 -45.3347 -45.2831 -45.2831
   -10.6453 -10.6453 -10.5596 -10.5596   7.8786   7.8786   8.0684   8.0684
     8.1708   8.1708   8.1919   8.1919   8.4572   8.4572   8.9025   8.9025
    12.8650  12.8650  13.0111  13.0111  13.1132  13.1132  13.2494  13.2494
    13.4542  13.4542  13.5636  13.5636  13.5840  13.5840  13.6856  13.6856
    13.8080  13.8080  14.0339  14.0339  14.1282  14.1282  14.2323  14.2323
    14.2903  14.2903  14.3959  14.3959  14.4939  14.4939  14.5106  14.5106
    14.6322  14.6322  14.8555  14.8555  14.9847  14.9847  15.0105  15.0105
    15.1017  15.1017  15.2291  15.2291  15.3605  15.3605  15.4678  15.4678
    16.9691  16.9691  17.0975  17.0975  17.2657  17.2657  17.6722  17.6722
    17.8388  17.8388  18.0454  18.0454  27.6867  27.6867  28.9882  28.9882
    30.9980  30.9980  31.5056  31.5056  32.9069  32.9069  33.5330  33.5330
    34.2379  34.2379  34.6082  34.6082  35.4470  35.4470  35.9379  35.9379
    37.1774  37.1774  37.3973  37.3973  39.0141  39.0141  39.3873  39.3873
    40.0642  40.0642  40.5536  40.5536  40.6996  40.6996  41.3481  41.3481
    42.4307  42.4307  43.1832  43.1832  43.6779  43.6779  44.2911  44.2911
    45.0335  45.0335  45.8828  45.8828  46.4159  46.4159  47.5790  47.5790
    48.0295  48.0295  48.2088  48.2088  48.7197  48.7197  48.7461  48.7461
    49.2579  49.2579  49.8997  49.8997  49.9478  49.9478  51.1381  51.1381
    51.2824  51.2824  51.8430  51.8430  52.0691  52.0691  52.8440  52.8440
    53.1546  53.1546  53.2862  53.2863  53.7618  53.7619  54.0560  54.0561
    54.4240  54.4240  54.5222  54.5223  54.6862  54.6863  55.1360  55.1363

          k =-0.4652 0.0000-0.3079 (  4788 PWs)   bands (ev):

   -89.2380 -89.2380 -89.1080 -89.1080 -89.0066 -89.0066 -88.8700 -88.8700
   -88.8572 -88.8572 -88.7254 -88.7254 -46.3731 -46.3731 -46.3554 -46.3554
   -46.3298 -46.3298 -46.3077 -46.3077 -46.1088 -46.1088 -46.1067 -46.1067
   -45.7843 -45.7843 -45.7797 -45.7797 -45.7282 -45.7282 -45.7196 -45.7196
   -45.6131 -45.6131 -45.6064 -45.6064 -45.5319 -45.5319 -45.5260 -45.5260
   -45.5178 -45.5178 -45.5106 -45.5106 -45.3366 -45.3366 -45.2805 -45.2805
   -10.6037 -10.6037 -10.6019 -10.6019   8.0441   8.0441   8.1292   8.1292
     8.1708   8.1708   8.1862   8.1862   8.5030   8.5030   8.5589   8.5589
    12.8976  12.8976  13.0141  13.0141  13.2690  13.2690  13.2718  13.2718
    13.3013  13.3013  13.5306  13.5306  13.6147  13.6147  13.6946  13.6946
    13.7332  13.7332  14.0407  14.0407  14.1049  14.1049  14.2357  14.2357
    14.3582  14.3582  14.4361  14.4361  14.4394  14.4394  14.6062  14.6062
    14.6479  14.6479  14.7464  14.7464  14.9930  14.9930  15.0090  15.0090
    15.2036  15.2036  15.2533  15.2533  15.2999  15.2999  15.4123  15.4123
    17.2139  17.2139  17.3803  17.3803  17.4683  17.4683  17.4989  17.4989
    17.5334  17.5334  17.7567  17.7567  28.0400  28.0400  28.4234  28.4234
    31.4549  31.4549  32.3164  32.3164  32.5046  32.5046  32.8621  32.8621
    34.4126  34.4126  34.5690  34.5690  35.3796  35.3796  36.2399  36.2399
    36.3572  36.3572  37.3037  37.3037  39.4956  39.4956  39.7543  39.7543
    40.2552  40.2552  40.2552  40.2552  40.9151  40.9151  41.0324  41.0324
    42.4691  42.4691  42.8675  42.8675  43.7659  43.7659  44.0689  44.0689
    45.1824  45.1824  45.5915  45.5915  47.1208  47.1208  47.7430  47.7430
    48.1424  48.1424  48.2403  48.2403  48.5546  48.5546  48.6715  48.6715
    48.8686  48.8686  49.7051  49.7051  50.2275  50.2275  50.7099  50.7099
    51.1746  51.1746  51.8872  51.8872  52.1309  52.1309  52.8149  52.8149
    53.2484  53.2484  53.6585  53.6586  53.8912  53.8913  53.9496  53.9496
    54.4031  54.4032  54.9752  54.9753  54.9834  54.9836  55.5831  55.5840

          k =-0.4652 0.2863 0.0000 (  4776 PWs)   bands (ev):

   -89.1248 -89.1248 -89.0310 -89.0310 -89.0084 -89.0084 -88.9441 -88.9441
   -88.8302 -88.8302 -88.7349 -88.7349 -46.3547 -46.3547 -46.3516 -46.3516
   -46.3287 -46.3287 -46.3206 -46.3206 -46.1173 -46.1173 -46.1010 -46.1010
   -45.7891 -45.7891 -45.7831 -45.7831 -45.7290 -45.7290 -45.7158 -45.7158
   -45.6296 -45.6296 -45.5733 -45.5733 -45.5583 -45.5583 -45.5130 -45.5130
   -45.5078 -45.5078 -45.5069 -45.5069 -45.3229 -45.3229 -45.2914 -45.2914
   -10.6622 -10.6622 -10.5410 -10.5410   7.6731   7.6731   7.7261   7.7261
     7.9923   7.9923   8.4282   8.4282   8.8494   8.8494   9.2228   9.2228
    12.5633  12.5633  13.0279  13.0279  13.0818  13.0818  13.1918  13.1918
    13.4424  13.4424  13.5648  13.5648  13.7077  13.7077  13.7755  13.7755
    13.8747  13.8747  13.9801  13.9801  14.1491  14.1491  14.1705  14.1705
    14.2733  14.2733  14.3359  14.3359  14.5359  14.5359  14.5571  14.5571
    14.7823  14.7823  14.7980  14.7980  15.0312  15.0312  15.0574  15.0574
    15.1736  15.1736  15.1837  15.1837  15.4127  15.4127  15.4385  15.4385
    16.5511  16.5511  16.5987  16.5987  16.9695  16.9695  17.8249  17.8249
    18.3640  18.3640  18.4158  18.4158  28.0868  28.0868  29.3024  29.3024
    30.2757  30.2757  31.3883  31.3883  32.7806  32.7806  33.2358  33.2358
    33.4315  33.4315  35.4550  35.4550  35.4931  35.4931  36.6218  36.6218
    37.0899  37.0899  38.2866  38.2866  38.4462  38.4462  39.0947  39.0947
    39.4634  39.4634  40.5320  40.5320  40.7722  40.7722  41.9308  41.9308
    42.9662  42.9662  43.0299  43.0299  43.5776  43.5776  43.8327  43.8327
    44.9485  44.9485  45.6601  45.6601  46.2198  46.2198  47.0597  47.0597
    47.6984  47.6984  47.8660  47.8660  48.7189  48.7189  49.2232  49.2232
    49.8852  49.8852  50.1131  50.1131  50.8248  50.8249  50.8802  50.8802
    51.6536  51.6537  51.9553  51.9553  52.2671  52.2671  52.4030  52.4030
    52.8067  52.8067  53.3466  53.3466  53.7090  53.7090  53.7644  53.7644
    54.1057  54.1057  54.6299  54.6300  54.9257  54.9258  55.0743  55.0745

          k =-0.4652 0.2863 0.1540 (  4784 PWs)   bands (ev):

   -89.1282 -89.1282 -89.0618 -89.0618 -89.0104 -89.0104 -88.9529 -88.9529
   -88.8241 -88.8241 -88.7672 -88.7672 -46.3562 -46.3562 -46.3493 -46.3493
   -46.3299 -46.3299 -46.3230 -46.3230 -46.1145 -46.1145 -46.1067 -46.1067
   -45.7894 -45.7894 -45.7816 -45.7816 -45.7295 -45.7295 -45.7211 -45.7211
   -45.6228 -45.6228 -45.5899 -45.5899 -45.5459 -45.5459 -45.5155 -45.5155
   -45.5130 -45.5130 -45.5095 -45.5095 -45.3207 -45.3207 -45.2936 -45.2936
   -10.6449 -10.6449 -10.5591 -10.5591   7.7389   7.7389   7.7492   7.7492
     8.0373   8.0373   8.4168   8.4168   8.8241   8.8241   9.0418   9.0418
    12.6789  12.6789  13.0518  13.0518  13.0867  13.0867  13.1705  13.1705
    13.3894  13.3894  13.5045  13.5045  13.7208  13.7208  13.7510  13.7510
    13.8724  13.8724  14.0105  14.0105  14.1264  14.1264  14.2070  14.2070
    14.3083  14.3083  14.3314  14.3314  14.5069  14.5069  14.6304  14.6304
    14.7213  14.7213  14.8452  14.8452  14.9852  14.9852  15.0694  15.0694
    15.1516  15.1516  15.2179  15.2179  15.3811  15.3811  15.4249  15.4249
    16.6384  16.6384  16.6799  16.6799  17.1094  17.1094  17.7634  17.7634
    18.2348  18.2348  18.2571  18.2571  28.2912  28.2912  29.1835  29.1835
    30.4398  30.4398  31.2563  31.2563  32.5595  32.5595  33.2718  33.2718
    33.7316  33.7316  35.1374  35.1374  35.8573  35.8573  36.2275  36.2275
    37.2254  37.2254  38.0294  38.0294  38.5846  38.5846  39.2312  39.2312
    39.5786  39.5786  40.2131  40.2131  41.1738  41.1738  41.5076  41.5076
    42.5797  42.5797  43.0906  43.0906  43.6359  43.6359  44.2106  44.2106
    45.1249  45.1249  45.7069  45.7069  46.5804  46.5804  46.8898  46.8898
    47.2701  47.2701  47.6637  47.6637  48.6207  48.6207  49.3441  49.3441
    49.6676  49.6676  50.3665  50.3665  50.7860  50.7860  51.0778  51.0778
    51.7843  51.7844  51.8690  51.8690  52.2118  52.2119  52.6179  52.6179
    53.1373  53.1374  53.3417  53.3418  53.7552  53.7552  53.9829  53.9829
    54.2187  54.2187  54.4211  54.4211  54.5704  54.5705  54.9623  54.9624

          k =-0.4652 0.2863-0.3079 (  4752 PWs)   bands (ev):

   -89.0733 -89.0733 -89.0280 -89.0280 -88.9667 -88.9667 -88.8743 -88.8743
   -88.7732 -88.7732 -88.7224 -88.7224 -46.3543 -46.3543 -46.3472 -46.3472
   -46.3264 -46.3264 -46.3198 -46.3198 -46.1052 -46.1052 -46.1033 -46.1033
   -45.7825 -45.7825 -45.7761 -45.7761 -45.7245 -45.7245 -45.7205 -45.7205
   -45.6077 -45.6077 -45.6023 -45.6023 -45.5264 -45.5264 -45.5238 -45.5238
   -45.5109 -45.5109 -45.5042 -45.5042 -45.3185 -45.3185 -45.2903 -45.2903
   -10.6020 -10.6020 -10.6013 -10.6013   7.7800   7.7800   7.7864   7.7864
     8.2565   8.2565   8.2792   8.2792   8.8098   8.8098   8.8388   8.8388
    12.8952  12.8952  12.9016  12.9016  13.1612  13.1612  13.1970  13.1970
    13.2992  13.2992  13.4994  13.4994  13.6726  13.6726  13.7696  13.7696
    13.8367  13.8367  14.0965  14.0965  14.1545  14.1545  14.1845  14.1845
    14.3263  14.3263  14.3764  14.3764  14.5070  14.5070  14.5805  14.5805
    14.8145  14.8145  14.8223  14.8223  14.9868  14.9868  15.0511  15.0511
    15.1641  15.1641  15.2306  15.2306  15.3561  15.3561  15.4150  15.4150
    16.7331  16.7331  16.7731  16.7731  17.4230  17.4230  17.5792  17.5792
    18.0811  18.0811  18.1053  18.1053  28.6804  28.6804  28.8545  28.8545
    30.8155  30.8155  31.0643  31.0643  32.3556  32.3556  33.0739  33.0739
    34.1143  34.1143  35.2959  35.2959  35.8000  35.8000  35.9925  35.9925
    37.2036  37.2036  38.0243  38.0243  38.5921  38.5921  38.9682  38.9682
    39.7304  39.7304  40.5447  40.5447  41.3059  41.3059  41.4199  41.4199
    41.9073  41.9073  42.6656  42.6656  44.1091  44.1091  44.5100  44.5100
    45.7336  45.7336  45.9210  45.9210  46.3799  46.3799  46.6881  46.6881
    47.0114  47.0114  47.4471  47.4471  48.6801  48.6801  48.9923  48.9923
    49.7282  49.7282  50.7210  50.7210  51.0035  51.0035  51.0866  51.0867
    51.3913  51.3913  51.7849  51.7850  52.5532  52.5532  52.7169  52.7169
    53.3025  53.3026  53.3678  53.3679  53.7139  53.7140  53.8526  53.8527
    54.2779  54.2779  54.5295  54.5297  54.6886  54.6886  55.4326  55.4332

     the Fermi energy is    48.4074 ev

!    total energy              =   -5929.40103883 Ry
     Harris-Foulkes estimate   =   -5929.40106565 Ry
     estimated scf accuracy    <       0.00003067 Ry

     The total energy is the sum of the following terms:

     one-electron contribution =   -1099.55224423 Ry
     hartree contribution      =     901.86903443 Ry
     xc contribution           =    -489.01122073 Ry
     ewald contribution        =   -5242.20285204 Ry
     smearing contrib. (-TS)   =      -0.50375626 Ry

     convergence has been achieved in   8 iterations

     Forces acting on atoms (Ry/au):

     atom    1 type  1   force =     0.58857981   -0.64331394   -0.84135395
     atom    2 type  1   force =    -0.58857981   -0.64331394    0.84135395
     atom    3 type  1   force =     0.58857981    0.64331394   -0.84135395
     atom    4 type  1   force =    -1.02441955   -0.40978857    0.00000000
     atom    5 type  1   force =    -0.58857981   -0.64331394   -0.84135395
     atom    6 type  1   force =     0.58857981   -0.64331394    0.84135395
     atom    7 type  1   force =     1.02441955   -0.40978857    0.00000000
     atom    8 type  1   force =    -0.58857981    0.64331394   -0.84135395
     atom    9 type  1   force =     0.58857981    0.64331394    0.84135395
     atom   10 type  1   force =     1.02441955    0.40978857    0.00000000
     atom   11 type  1   force =    -0.58857981    0.64331394    0.84135395
     atom   12 type  1   force =    -1.02441955    0.40978857    0.00000000
     atom   13 type  2   force =     0.00000000    0.00000000    0.00000000
     atom   14 type  2   force =     0.00000000    0.00000000    0.00000000
     atom   15 type  2   force =     0.00000000    0.00000000    0.00000000
     atom   16 type  2   force =     0.00000000    0.00000000    0.00000000

     Total force =     4.076112     Total SCF correction =     0.000000


     entering subroutine stress ...

          total   stress  (Ry/bohr**3)                   (kbar)     P= 4998.31
   0.03449430   0.00000000   0.00000000       5074.29      0.00      0.00
   0.00000000   0.03291214   0.00000000          0.00   4841.54      0.00
   0.00000000   0.00000000   0.03452699          0.00      0.00   5079.10


     number of scf cycles    =   2
     number of bfgs steps    =   1

     enthalpy old            =   -5913.0546586783 Ry
     enthalpy new            =   -5929.4010388340 Ry

     CASE: enthalpy_new < enthalpy_old

     small trust_radius: resetting bfgs history

     new trust radius        =       6.4248664229 bohr
     new conv_thr            =       0.0001000000 Ry

     new unit-cell volume =   8760.46582 a.u.^3 (  1298.16708 Ang^3 )

CELL_PARAMETERS (alat=  8.80076499)
   2.001668936   0.000000000   0.000000000
   0.000000000   2.122128622   0.000000000
   0.000000000   0.000000000   3.025533566

ATOMIC_POSITIONS (crystal)
Fe       0.413678363   0.101609988   0.859600835
Fe       0.086321637   0.601609988   0.640399165
Fe       0.913678363   0.398390012   0.359600835
Fe       0.224141354   0.407733005   0.250000000
Fe       0.086321637   0.601609988   0.859600835
Fe       0.413678363   0.101609988   0.640399165
Fe       0.275858646   0.907733005   0.250000000
Fe       0.586321637   0.898390012   0.359600835
Fe       0.913678363   0.398390012   0.140399165
Fe       0.775858646   0.592266995   0.750000000
Fe       0.586321637   0.898390012   0.140399165
Fe       0.724141354   0.092266995   0.750000000
C        0.000000000   0.000000000   0.000000000
C        0.500000000   0.500000000   0.000000000
C        0.500000000   0.500000000   0.500000000
C        0.000000000   0.000000000   0.500000000



     Writing output data file Prototype-La-oP16-Fe3C.save
     NEW-OLD atomic charge density approx. for the potential
     NEW k-points:
        k(    1) = (   0.0000000   0.0000000   0.0000000), wk =   0.0833333
        k(    2) = (   0.0000000   0.0000000   0.0826301), wk =   0.1666667
        k(    3) = (   0.0000000   0.0000000  -0.1652601), wk =   0.0833333
        k(    4) = (   0.0000000   0.1570750   0.0000000), wk =   0.1666667
        k(    5) = (   0.0000000   0.1570750   0.0826301), wk =   0.3333333
        k(    6) = (   0.0000000   0.1570750  -0.1652601), wk =   0.1666667
        k(    7) = (  -0.2497916   0.0000000   0.0000000), wk =   0.0833333
        k(    8) = (  -0.2497916   0.0000000   0.0826301), wk =   0.1666667
        k(    9) = (  -0.2497916   0.0000000  -0.1652601), wk =   0.0833333
        k(   10) = (  -0.2497916   0.1570750   0.0000000), wk =   0.1666667
        k(   11) = (  -0.2497916   0.1570750   0.0826301), wk =   0.3333333
        k(   12) = (  -0.2497916   0.1570750  -0.1652601), wk =   0.1666667

     total cpu time spent up to now is     1116.1 secs

     Self-consistent Calculation

     iteration #  1     ecut=    40.00 Ry     beta=0.70
     CG style diagonalization
     c_bands:  4 eigenvalues not converged
     c_bands:  2 eigenvalues not converged
     c_bands:  2 eigenvalues not converged
     c_bands:  2 eigenvalues not converged
     c_bands:  1 eigenvalues not converged
     c_bands:  3 eigenvalues not converged
     c_bands:  3 eigenvalues not converged
     c_bands:  4 eigenvalues not converged
     c_bands:  5 eigenvalues not converged
     c_bands:  5 eigenvalues not converged
     c_bands:  1 eigenvalues not converged
     c_bands:  3 eigenvalues not converged
     ethr =  1.00E-06,  avg # of iterations = 57.0

     total cpu time spent up to now is     1613.8 secs

     total energy              =   -4363.19058661 Ry
     Harris-Foulkes estimate   =   -7905.07553637 Ry
     estimated scf accuracy    <    4145.94670993 Ry

     iteration #  2     ecut=    40.00 Ry     beta=0.70
     CG style diagonalization
     ethr =  1.00E-02,  avg # of iterations = 18.2

     total cpu time spent up to now is     1772.9 secs

     total energy              =   -4808.47875047 Ry
     Harris-Foulkes estimate   =   -6548.11214893 Ry
     estimated scf accuracy    <    2978.31048333 Ry

     iteration #  3     ecut=    40.00 Ry     beta=0.70
     CG style diagonalization
     c_bands:  4 eigenvalues not converged
     ethr =  1.00E-02,  avg # of iterations = 12.5

     total cpu time spent up to now is     1883.1 secs

     total energy              =   -5429.13634379 Ry
     Harris-Foulkes estimate   =   -5802.21346311 Ry
     estimated scf accuracy    <     779.23297057 Ry

     iteration #  4     ecut=    40.00 Ry     beta=0.70
     CG style diagonalization
     ethr =  1.00E-02,  avg # of iterations =  5.7

     total cpu time spent up to now is     1934.6 secs

     total energy              =   -5510.22928398 Ry
     Harris-Foulkes estimate   =   -5566.46239189 Ry
     estimated scf accuracy    <      81.76272530 Ry

     iteration #  5     ecut=    40.00 Ry     beta=0.70
     CG style diagonalization
     ethr =  1.00E-02,  avg # of iterations =  5.1

     total cpu time spent up to now is     1979.4 secs

     total energy              =   -5535.54909736 Ry
     Harris-Foulkes estimate   =   -5568.97028318 Ry
     estimated scf accuracy    <      80.68169659 Ry

     iteration #  6     ecut=    40.00 Ry     beta=0.70
     CG style diagonalization
     ethr =  1.00E-02,  avg # of iterations =  3.7

     total cpu time spent up to now is     2009.1 secs

     total energy              =   -5540.79418698 Ry
     Harris-Foulkes estimate   =   -5544.09381987 Ry
     estimated scf accuracy    <       6.86866584 Ry

     iteration #  7     ecut=    40.00 Ry     beta=0.70
     CG style diagonalization
     c_bands:  1 eigenvalues not converged
     ethr =  1.91E-03,  avg # of iterations =  3.8

     total cpu time spent up to now is     2039.4 secs

     total energy              =   -5542.41675568 Ry
     Harris-Foulkes estimate   =   -5542.95154063 Ry
     estimated scf accuracy    <       1.47268585 Ry

     iteration #  8     ecut=    40.00 Ry     beta=0.70
     CG style diagonalization
     ethr =  4.09E-04,  avg # of iterations =  3.5

     total cpu time spent up to now is     2062.1 secs

     total energy              =   -5542.47122414 Ry
     Harris-Foulkes estimate   =   -5543.05106052 Ry
     estimated scf accuracy    <       2.23383336 Ry

     iteration #  9     ecut=    40.00 Ry     beta=0.70
     CG style diagonalization
     ethr =  4.09E-04,  avg # of iterations =  3.1

     total cpu time spent up to now is     2081.3 secs

     total energy              =   -5542.74363428 Ry
     Harris-Foulkes estimate   =   -5542.87239232 Ry
     estimated scf accuracy    <       0.61881677 Ry

     iteration # 10     ecut=    40.00 Ry     beta=0.70
     CG style diagonalization
     ethr =  1.72E-04,  avg # of iterations =  3.0

     total cpu time spent up to now is     2099.7 secs

     total energy              =   -5542.81123072 Ry
     Harris-Foulkes estimate   =   -5542.81973173 Ry
     estimated scf accuracy    <       0.04219049 Ry

     iteration # 11     ecut=    40.00 Ry     beta=0.70
     CG style diagonalization
     c_bands:  1 eigenvalues not converged
     c_bands:  1 eigenvalues not converged
     c_bands:  1 eigenvalues not converged
     c_bands:  1 eigenvalues not converged
     c_bands:  2 eigenvalues not converged
     c_bands:  2 eigenvalues not converged
     c_bands:  1 eigenvalues not converged
     c_bands:  1 eigenvalues not converged
     c_bands:  2 eigenvalues not converged
     ethr =  1.17E-05,  avg # of iterations =  3.5

     total cpu time spent up to now is     2122.6 secs

     total energy              =   -5542.81540374 Ry
     Harris-Foulkes estimate   =   -5542.81578701 Ry
     estimated scf accuracy    <       0.00085104 Ry

     iteration # 12     ecut=    40.00 Ry     beta=0.70
     CG style diagonalization
     c_bands:  1 eigenvalues not converged
     c_bands:  1 eigenvalues not converged
     c_bands:  1 eigenvalues not converged
     ethr =  2.36E-07,  avg # of iterations =  3.8

     total cpu time spent up to now is     2147.4 secs

     total energy              =   -5542.81549358 Ry
     Harris-Foulkes estimate   =   -5542.81576366 Ry
     estimated scf accuracy    <       0.00168665 Ry

[...]
     9.3204   9.3648   9.3850   9.4145   9.4200   9.4426   9.4475   9.5026
    10.6153  10.8075  10.9783  11.0321  11.1363  11.2316  11.3571  11.6156
    11.6431  11.7485  11.8457  11.8611  21.0771  22.6129  22.7033  23.6634
    24.9956  25.1103  25.1112  25.9839  26.6018  26.9182  27.5664  27.8559
    28.5635  28.9731  29.0839  30.0022  30.1772  30.4264  30.8534  31.2545
    31.3045  31.7367  31.7788  32.0946  32.1752  32.9534  33.0452  33.3589
    33.6516  34.4139  34.5027  34.7024  34.9642  35.2038  35.6557  36.0473
    36.2165  36.3601  36.4903  36.9595  37.0165  37.5097  37.5554  37.9740
    38.1327  38.5570  38.8040  39.3359  39.6335  39.7674  40.1946  40.7410
    41.0681  41.4771  41.7014  41.9897  42.2129  42.4583  42.6240  43.0381
    43.4759  43.4808  43.5083  43.6440  43.8347  44.0153  44.6721  44.7309
    44.8099  44.8415  45.4758  45.5683  45.9708  45.9788  46.0787  46.1421
    46.2345  46.4475  46.5419  46.5952  46.6850  47.1046  47.1336  47.5217
    47.5358  47.5739  47.7526  47.9329  47.9932  48.0015  48.3415  48.3665

          k = 0.0000 0.2739-0.2933 (  6796 PWs)   bands (ev):

   -96.0456 -96.0456 -95.9999 -95.9999 -95.9912 -95.9912 -95.9464 -95.9464
   -95.8148 -95.8148 -95.7902 -95.7902 -51.9217 -51.9217 -51.9128 -51.9128
   -51.9074 -51.9074 -51.8931 -51.8931 -51.7211 -51.7211 -51.7125 -51.7125
   -51.5869 -51.5869 -51.5809 -51.5809 -51.5339 -51.5339 -51.5284 -51.5284
   -51.4618 -51.4618 -51.4555 -51.4555 -51.4069 -51.4069 -51.4001 -51.4001
   -51.3419 -51.3419 -51.3393 -51.3393 -51.2087 -51.2087 -51.2081 -51.2081
   -15.0195 -15.0195 -14.9568 -14.9568   3.9004   3.9004   4.1515   4.1515
     4.4706   4.4706   4.5560   4.5560   4.6506   4.6506   4.6643   4.6643
     7.7519   7.7519   7.8007   7.8007   7.9701   7.9701   7.9731   7.9731
     8.1951   8.1951   8.2323   8.2323   8.2689   8.2689   8.2690   8.2690
     8.5187   8.5187   8.5311   8.5311   8.5947   8.5947   8.6097   8.6097
     8.7799   8.7799   8.7844   8.7844   8.8727   8.8727   8.9213   8.9213
     9.0067   9.0067   9.0530   9.0530   9.1736   9.1736   9.1776   9.1776
     9.3451   9.3451   9.3471   9.3471   9.4126   9.4126   9.4847   9.4847
    10.8725  10.8725  10.9912  10.9912  11.3445  11.3445  11.3678  11.3678
    11.6662  11.6662  11.6793  11.6793  21.6854  21.6854  23.1203  23.1203
    25.5730  25.5730  25.6568  25.6568  26.9606  26.9606  27.0611  27.0611
    28.9100  28.9100  29.6866  29.6866  30.1375  30.1375  30.6653  30.6653
    31.5350  31.5350  31.7203  31.7203  32.8431  32.8431  33.0490  33.0490
    34.4597  34.4597  34.6644  34.6644  35.0209  35.0209  35.1143  35.1143
    36.5684  36.5684  37.0875  37.0875  37.2607  37.2607  38.2823  38.2823
    38.4266  38.4266  38.5727  38.5727  39.7301  39.7301  41.0398  41.0398
    41.6163  41.6163  41.7200  41.7200  42.3183  42.3182  42.6273  42.6273
    42.9721  42.9721  43.3013  43.3013  44.0298  44.0298  44.5045  44.5045
    45.1518  45.1518  45.1561  45.1561  45.7322  45.7322  46.0566  46.0566
    46.3442  46.3443  46.7635  46.7636  46.7696  46.7696  47.0495  47.0496
    47.7880  47.7882  47.9950  47.9952  48.2675  48.2676  48.4823  48.4825

          k =-0.4432 0.0000 0.0000 (  6836 PWs)   bands (ev):

   -96.0715 -96.0715 -96.0435 -96.0435 -96.0238 -96.0238 -95.9839 -95.9839
   -95.8759 -95.8759 -95.7827 -95.7827 -51.9258 -51.9257 -51.9257 -51.9257
   -51.9048 -51.9048 -51.9039 -51.9039 -51.7245 -51.7245 -51.7115 -51.7115
   -51.5978 -51.5978 -51.5870 -51.5870 -51.5363 -51.5363 -51.5313 -51.5313
   -51.4809 -51.4809 -51.4383 -51.4383 -51.4302 -51.4301 -51.3967 -51.3967
   -51.3577 -51.3577 -51.3424 -51.3423 -51.2157 -51.2157 -51.2102 -51.2101
   -15.0166 -15.0166 -14.9585 -14.9585   4.0105   4.0105   4.1635   4.1635
     4.3114   4.3114   4.3133   4.3133   4.5888   4.5888   5.0244   5.0244
     7.7084   7.7084   7.8246   7.8246   7.9274   7.9274   8.0459   8.0459
     8.1328   8.1328   8.2997   8.2997   8.3066   8.3066   8.3793   8.3793
     8.4174   8.4174   8.4565   8.4565   8.6066   8.6066   8.6801   8.6801
     8.7255   8.7255   8.7577   8.7577   8.8028   8.8028   8.8713   8.8713
     8.9735   8.9735   9.1737   9.1738   9.1871   9.1871   9.2298   9.2298
     9.2955   9.2956   9.3342   9.3342   9.4746   9.4746   9.5265   9.5265
    10.8672  10.8672  10.8802  10.8802  11.0596  11.0596  11.4698  11.4698
    11.6447  11.6448  11.7718  11.7718  21.9820  21.9820  23.8189  23.8189
    24.7773  24.7773  25.0964  25.0964  27.3630  27.3630  27.6537  27.6537
    28.5415  28.5415  29.7270  29.7270  30.2077  30.2077  30.2828  30.2828
    30.8634  30.8634  32.0706  32.0706  33.0650  33.0650  33.7123  33.7123
    34.1739  34.1739  34.9578  34.9578  35.1167  35.1167  35.3866  35.3866
    35.6469  35.6469  37.4072  37.4072  37.4910  37.4910  37.6334  37.6334
    38.0324  38.0324  39.1333  39.1333  40.2995  40.2995  40.9983  40.9984
    41.0414  41.0414  41.7780  41.7780  42.3706  42.3706  42.5868  42.5868
    42.6557  42.6558  43.0252  43.0252  44.4101  44.4101  44.4278  44.4278
    44.8445  44.8445  45.1930  45.1931  45.7840  45.7841  45.8494  45.8495
    46.5250  46.5250  46.9424  46.9425  47.1142  47.1143  47.3512  47.3513
    47.4676  47.4676  47.5281  47.5281  48.0984  48.0986  48.1772  48.1773

          k =-0.4432 0.0000 0.1467 (  6854 PWs)   bands (ev):

   -96.0770 -96.0770 -96.0599 -96.0599 -96.0405 -96.0405 -96.0013 -96.0013
   -95.8731 -95.8731 -95.8091 -95.8091 -51.9290 -51.9290 -51.9259 -51.9259
   -51.9098 -51.9098 -51.9049 -51.9049 -51.7289 -51.7289 -51.7135 -51.7134
   -51.5952 -51.5952 -51.5854 -51.5854 -51.5392 -51.5392 -51.5377 -51.5377
   -51.4810 -51.4809 -51.4494 -51.4493 -51.4222 -51.4222 -51.4042 -51.4042
   -51.3592 -51.3591 -51.3468 -51.3468 -51.2184 -51.2183 -51.2116 -51.2115
   -15.0082 -15.0082 -14.9671 -14.9671   4.0871   4.0871   4.1844   4.1844
     4.3062   4.3062   4.3204   4.3204   4.5763   4.5763   4.8877   4.8877
     7.7177   7.7177   7.8602   7.8602   7.9354   7.9354   8.0510   8.0510
     8.1564   8.1564   8.2593   8.2593   8.2800   8.2800   8.3304   8.3304
     8.3959   8.3959   8.5542   8.5542   8.5762   8.5762   8.6700   8.6700
     8.7132   8.7132   8.7732   8.7732   8.8502   8.8502   8.8813   8.8813
     8.9820   8.9820   9.1271   9.1271   9.1909   9.1909   9.2404   9.2405
     9.2961   9.2961   9.3596   9.3596   9.4593   9.4593   9.5031   9.5031
    10.9275  10.9275  11.0320  11.0320  11.1327  11.1327  11.3888  11.3888
    11.5346  11.5346  11.6624  11.6624  22.1533  22.1533  23.3309  23.3309
    25.0941  25.0941  25.5720  25.5720  26.9904  26.9904  27.4692  27.4693
    28.7555  28.7555  29.1816  29.1816  30.0135  30.0135  30.4008  30.4008
    31.6239  31.6239  31.7549  31.7549  33.2542  33.2542  33.6474  33.6474
    34.2668  34.2668  34.6936  34.6936  34.9582  34.9582  35.4796  35.4796
    36.0052  36.0052  36.7132  36.7132  37.6694  37.6694  37.7370  37.7370
    38.3339  38.3339  39.4083  39.4083  39.7158  39.7158  40.6850  40.6850
    41.6571  41.6571  41.7988  41.7988  42.2865  42.2865  42.6054  42.6054
    42.8579  42.8579  43.0264  43.0264  43.6207  43.6207  44.4179  44.4180
    45.0386  45.0387  45.3023  45.3024  45.7186  45.7186  46.3483  46.3484
    46.4467  46.4468  46.9817  46.9818  47.2103  47.2103  47.3208  47.3209
    47.6019  47.6020  47.7379  47.7380  47.8342  47.8345  48.2120  48.2121

          k =-0.4432 0.0000-0.2933 (  6812 PWs)   bands (ev):

   -96.0533 -96.0533 -96.0296 -96.0296 -96.0116 -96.0116 -95.9534 -95.9534
   -95.8384 -95.8384 -95.7754 -95.7754 -51.9235 -51.9235 -51.9184 -51.9184
   -51.9045 -51.9045 -51.9031 -51.9031 -51.7220 -51.7220 -51.7073 -51.7073
   -51.5833 -51.5833 -51.5818 -51.5818 -51.5353 -51.5353 -51.5327 -51.5327
   -51.4634 -51.4634 -51.4597 -51.4597 -51.4066 -51.4066 -51.4020 -51.4020
   -51.3501 -51.3501 -51.3473 -51.3473 -51.2114 -51.2114 -51.2072 -51.2072
   -14.9879 -14.9879 -14.9874 -14.9874   4.1715   4.1715   4.2210   4.2210
     4.3150   4.3150   4.3229   4.3229   4.6233   4.6233   4.6672   4.6672
     7.7410   7.7410   7.8306   7.8306   8.0419   8.0419   8.0681   8.0681
     8.0813   8.0813   8.2598   8.2598   8.2953   8.2953   8.3361   8.3361
     8.3416   8.3416   8.5554   8.5554   8.5776   8.5776   8.6367   8.6367
     8.7729   8.7729   8.7894   8.7894   8.8341   8.8341   8.9512   8.9512
     9.0025   9.0025   9.0523   9.0523   9.2145   9.2145   9.2437   9.2437
     9.3092   9.3092   9.3974   9.3974   9.4019   9.4019   9.4911   9.4911
    11.1010  11.1010  11.2141  11.2141  11.2773  11.2773  11.2845  11.2845
    11.3443  11.3443  11.4574  11.4574  22.5049  22.5049  22.8026  22.8026
    25.5003  25.5003  26.2377  26.2377  26.5903  26.5903  26.7835  26.7835
    28.9612  28.9612  29.2236  29.2236  29.8311  29.8311  30.8396  30.8396
    30.8636  30.8636  31.9722  31.9722  33.7470  33.7470  33.8659  33.8659
    34.2906  34.2906  34.5074  34.5074  34.8805  34.8805  35.3161  35.3161
    36.0413  36.0413  36.6101  36.6101  37.4418  37.4418  37.7117  37.7117
    38.7342  38.7342  38.8754  38.8754  40.6519  40.6519  40.9235  40.9235
    41.4769  41.4769  41.5439  41.5439  42.1774  42.1774  42.2839  42.2839
    42.5875  42.5875  43.1110  43.1110  43.8591  43.8591  44.3170  44.3170
    44.7194  44.7195  45.6314  45.6315  45.8841  45.8842  46.2003  46.2004
    46.9067  46.9067  47.0296  47.0296  47.3138  47.3139  47.3783  47.3785
    47.6763  47.6764  47.9264  47.9265  48.0406  48.0407  48.5296  48.5299

          k =-0.4432 0.2739 0.0000 (  6828 PWs)   bands (ev):

   -96.0457 -96.0457 -96.0359 -96.0359 -96.0073 -96.0073 -96.0056 -96.0056
   -95.8438 -95.8438 -95.7996 -95.7996 -51.9244 -51.9244 -51.9198 -51.9198
   -51.9137 -51.9136 -51.9017 -51.9016 -51.7207 -51.7207 -51.7080 -51.7080
   -51.5912 -51.5912 -51.5886 -51.5886 -51.5335 -51.5335 -51.5283 -51.5283
   -51.4797 -51.4797 -51.4353 -51.4353 -51.4350 -51.4350 -51.3936 -51.3936
   -51.3510 -51.3510 -51.3486 -51.3485 -51.2182 -51.2180 -51.2078 -51.2076
   -15.0163 -15.0163 -14.9582 -14.9581   3.9520   3.9520   3.9830   3.9830
     4.1858   4.1858   4.4466   4.4466   4.8227   4.8227   5.1164   5.1164
     7.5629   7.5629   7.8708   7.8708   7.9271   7.9271   7.9932   7.9932
     8.1210   8.1210   8.2811   8.2811   8.3119   8.3119   8.3630   8.3630
     8.5043   8.5043   8.5048   8.5048   8.6074   8.6074   8.6519   8.6519
     8.7163   8.7163   8.7499   8.7499   8.8796   8.8796   8.9021   8.9021
     9.0215   9.0215   9.0826   9.0826   9.2099   9.2099   9.2351   9.2351
     9.3398   9.3398   9.3729   9.3729   9.4856   9.4856   9.5060   9.5060
    10.6358  10.6358  10.6392  10.6392  10.9336  10.9336  11.5434  11.5434
    11.8886  11.8886  11.8890  11.8890  22.5152  22.5152  23.6900  23.6901
    24.4431  24.4431  25.3940  25.3940  26.9880  26.9881  27.2196  27.2196
    27.8866  27.8866  30.0000  30.0000  30.1902  30.1903  30.9559  30.9559
    31.4533  31.4533  32.7892  32.7892  32.8499  32.8499  33.4111  33.4111
    33.8870  33.8870  34.6596  34.6597  34.7898  34.7898  35.8002  35.8002
    36.3624  36.3624  36.4264  36.4264  37.1985  37.1985  37.5564  37.5564
    38.7199  38.7199  38.9218  38.9219  39.5661  39.5662  40.6651  40.6652
    41.1562  41.1562  41.3510  41.3510  41.9585  41.9585  43.0372  43.0372
    43.5800  43.5800  43.6924  43.6924  44.3951  44.3951  44.4180  44.4180
    45.1110  45.1110  45.5281  45.5281  45.8453  45.8453  46.0798  46.0798
    46.5098  46.5099  46.6592  46.6593  47.0628  47.0628  47.1498  47.1500
    47.2885  47.2886  47.7875  47.7875  47.7924  47.7924  48.2953  48.2953

          k =-0.4432 0.2739 0.1467 (  6818 PWs)   bands (ev):

   -96.0442 -96.0442 -96.0259 -96.0259 -96.0083 -96.0083 -95.9867 -95.9867
   -95.8363 -95.8362 -95.7933 -95.7932 -51.9251 -51.9251 -51.9161 -51.9161
   -51.9119 -51.9119 -51.9002 -51.9002 -51.7193 -51.7193 -51.7100 -51.7099
   -51.5918 -51.5918 -51.5839 -51.5839 -51.5321 -51.5321 -51.5280 -51.5280
   -51.4750 -51.4750 -51.4492 -51.4492 -51.4185 -51.4185 -51.3965 -51.3965
   -51.3518 -51.3518 -51.3457 -51.3457 -51.2140 -51.2139 -51.2074 -51.2073
   -15.0079 -15.0079 -14.9668 -14.9668   3.9942   3.9942   4.0014   4.0014
     4.2159   4.2159   4.4376   4.4376   4.8084   4.8084   4.9980   4.9980
     7.6320   7.6320   7.8905   7.8905   7.9177   7.9177   7.9827   7.9827
     8.1177   8.1177   8.2099   8.2099   8.3426   8.3426   8.3612   8.3612
     8.4535   8.4535   8.5292   8.5292   8.6077   8.6077   8.6627   8.6627
     8.7181   8.7181   8.7779   8.7780   8.8611   8.8611   8.9562   8.9563
     9.0056   9.0056   9.0977   9.0977   9.1914   9.1914   9.2431   9.2431
     9.3312   9.3312   9.3815   9.3815   9.4597   9.4597   9.5065   9.5065
    10.6836  10.6836  10.7118  10.7118  11.0283  11.0283  11.5005  11.5005
    11.7845  11.7845  11.8210  11.8211  22.6903  22.6903  23.5330  23.5330
    24.6173  24.6174  25.3592  25.3593  26.5708  26.5709  27.2018  27.2018
    28.3183  28.3184  29.7995  29.7995  30.3481  30.3481  30.6962  30.6962
    31.7628  31.7628  32.5016  32.5016  33.0301  33.0301  33.5462  33.5462
    33.8521  33.8521  34.1819  34.1819  35.2141  35.2141  35.4132  35.4132
    36.1862  36.1862  36.6919  36.6919  37.1665  37.1665  37.7882  37.7882
    38.7741  38.7741  39.2740  39.2740  39.8597  39.8597  40.3707  40.3708
    40.6947  40.6947  41.0412  41.0412  42.2680  42.2680  42.9578  42.9578
    43.2941  43.2941  43.9613  43.9613  44.2628  44.2628  44.6478  44.6478
    45.2240  45.2241  45.5120  45.5121  45.8400  45.8401  46.1410  46.1411
    46.5812  46.5813  46.9158  46.9159  47.0371  47.0372  47.2715  47.2717
    47.4515  47.4516  47.6156  47.6156  47.7941  47.7943  48.1074  48.1075

          k =-0.4432 0.2739-0.2933 (  6836 PWs)   bands (ev):

   -96.0506 -96.0506 -96.0337 -96.0337 -96.0280 -96.0280 -96.0041 -96.0041
   -95.8485 -95.8485 -95.8083 -95.8083 -51.9244 -51.9244 -51.9196 -51.9196
   -51.9136 -51.9136 -51.9033 -51.9033 -51.7231 -51.7231 -51.7144 -51.7144
   -51.5871 -51.5871 -51.5829 -51.5829 -51.5370 -51.5370 -51.5355 -51.5355
   -51.4682 -51.4682 -51.4648 -51.4648 -51.4116 -51.4116 -51.4072 -51.4072
   -51.3524 -51.3524 -51.3474 -51.3474 -51.2152 -51.2152 -51.2113 -51.2113
   -14.9875 -14.9875 -14.9872 -14.9872   4.0178   4.0178   4.0254   4.0254
     4.3456   4.3456   4.3569   4.3569   4.8195   4.8195   4.8401   4.8401
     7.7676   7.7676   7.7691   7.7691   7.9698   7.9698   7.9941   7.9941
     8.0865   8.0865   8.2008   8.2008   8.3160   8.3160   8.3573   8.3573
     8.4205   8.4205   8.5873   8.5873   8.6063   8.6063   8.6161   8.6161
     8.7706   8.7706   8.7825   8.7825   8.8549   8.8549   8.9226   8.9226
     9.0814   9.0814   9.0880   9.0880   9.2003   9.2003   9.2171   9.2171
     9.3285   9.3285   9.3712   9.3712   9.4449   9.4449   9.5015   9.5015
    10.7504  10.7504  10.7635  10.7635  11.2471  11.2471  11.3408  11.3408
    11.7097  11.7097  11.7128  11.7128  23.0340  23.0340  23.1808  23.1808
    24.9546  24.9546  25.2163  25.2163  26.3289  26.3289  26.9337  26.9337
    28.8198  28.8198  29.9274  29.9274  30.2804  30.2804  30.4421  30.4421
    31.7628  31.7628  32.4835  32.4835  33.0683  33.0683  33.2152  33.2152
    34.0135  34.0135  34.4923  34.4923  35.1193  35.1193  35.4681  35.4681
    35.7593  35.7593  36.3931  36.3931  37.7558  37.7558  37.8363  37.8363
    39.0538  39.0538  39.5965  39.5965  39.9261  39.9261  40.0146  40.0146
    40.2991  40.2991  41.0212  41.0212  42.3949  42.3949  42.5541  42.5541
    43.2190  43.2190  44.1465  44.1465  44.5881  44.5881  44.6520  44.6520
    44.9239  44.9240  45.2740  45.2740  46.2405  46.2405  46.2862  46.2862
    46.6496  46.6497  46.8601  46.8601  47.0458  47.0458  47.2318  47.2319
    47.3663  47.3664  47.9045  47.9046  47.9452  47.9452  48.3727  48.3727

     the Fermi energy is    41.9512 ev

!    total energy              =   -5944.22510025 Ry
     Harris-Foulkes estimate   =   -5944.22511576 Ry
     estimated scf accuracy    <       0.00001716 Ry

     The total energy is the sum of the following terms:

     one-electron contribution =   -1450.15148451 Ry
     hartree contribution      =     997.71240061 Ry
     xc contribution           =    -483.34798825 Ry
     ewald contribution        =   -5007.94185841 Ry
     smearing contrib. (-TS)   =      -0.49616969 Ry

     convergence has been achieved in  11 iterations

     Forces acting on atoms (Ry/au):

     atom    1 type  1   force =     0.39689194   -0.45301179   -0.56419266
     atom    2 type  1   force =    -0.39689194   -0.45301179    0.56419266
     atom    3 type  1   force =     0.39689194    0.45301179   -0.56419266
     atom    4 type  1   force =    -0.70387669   -0.28928222    0.00000000
     atom    5 type  1   force =    -0.39689194   -0.45301179   -0.56419266
     atom    6 type  1   force =     0.39689194   -0.45301179    0.56419266
     atom    7 type  1   force =     0.70387669   -0.28928222    0.00000000
     atom    8 type  1   force =    -0.39689194    0.45301179   -0.56419266
     atom    9 type  1   force =     0.39689194    0.45301179    0.56419266
     atom   10 type  1   force =     0.70387669    0.28928222    0.00000000
     atom   11 type  1   force =    -0.39689194    0.45301179    0.56419266
     atom   12 type  1   force =    -0.70387669    0.28928222    0.00000000
     atom   13 type  2   force =     0.00000000    0.00000000    0.00000000
     atom   14 type  2   force =     0.00000000    0.00000000    0.00000000
     atom   15 type  2   force =     0.00000000    0.00000000    0.00000000
     atom   16 type  2   force =     0.00000000    0.00000000    0.00000000

     Total force =     2.786567     Total SCF correction =     0.000000


     entering subroutine stress ...

          total   stress  (Ry/bohr**3)                   (kbar)     P= 3369.01
   0.02319298   0.00000000   0.00000000       3411.81      0.00      0.00
   0.00000000   0.02208932   0.00000000          0.00   3249.45      0.00
   0.00000000   0.00000000   0.02342396          0.00      0.00   3445.78


     Writing output data file Prototype-La-oP16-Fe3C.save
 
     init_run     :      9.08s CPU     10.68s WALL (       2 calls)
     electrons    :   4178.06s CPU   4579.89s WALL (       5 calls)
     update_pot   :      2.41s CPU      2.43s WALL (       3 calls)
     forces       :     10.25s CPU     10.62s WALL (       5 calls)
     stress       :     40.58s CPU     41.02s WALL (       5 calls)

     Called by init_run:
     wfcinit      :      7.94s CPU      9.52s WALL (       2 calls)
     potinit      :      0.53s CPU      0.53s WALL (       2 calls)

     Called by electrons:
     c_bands      :   4137.65s CPU   4515.36s WALL (      51 calls)
     sum_band     :     39.95s CPU     53.96s WALL (      51 calls)
     v_of_rho     :      0.10s CPU      0.11s WALL (      56 calls)
     mix_rho      :      0.10s CPU      0.14s WALL (      51 calls)

     Called by c_bands:
     init_us_2    :      2.47s CPU      2.82s WALL (    1368 calls)
     ccgdiagg     :   3899.29s CPU   4228.13s WALL (     835 calls)
     wfcrot       :    243.16s CPU    291.23s WALL (     847 calls)

     Called by *cgdiagg:
     h_psi        :   2352.12s CPU   2713.75s WALL ( 1120213 calls)
     cdiaghg      :     25.23s CPU     29.60s WALL (     847 calls)

     Called by h_psi:
     add_vuspsi   :    717.40s CPU    734.30s WALL ( 1120213 calls)

     General routines
     calbec       :   1355.69s CPU   1462.12s WALL ( 2239699 calls)
     fft          :      0.13s CPU      0.16s WALL (     247 calls)
     fftw         :    857.92s CPU   1058.81s WALL ( 2736828 calls)
     davcio       :      2.22s CPU      5.18s WALL (    1980 calls)
 
     Parallel routines
     fft_scatter  :    325.01s CPU    416.54s WALL ( 2737075 calls)
 
     PWSCF        :     1h10m CPU        1h17m WALL

 
   This run was terminated on:  11:27:46  22Mar2018            

=------------------------------------------------------------------------------=
   JOB DONE.
=------------------------------------------------------------------------------=
