
     Program PWSCF v.5.0.2 starts on 22Mar2018 at 10:10:20 

     This program is part of the open-source Quantum ESPRESSO suite
     for quantum simulation of materials; please cite
         "P. Giannozzi et al., J. Phys.:Condens. Matter 21 395502 (2009);
          URL http://www.quantum-espresso.org", 
     in publications or presentations arising from this work. More details at
     http://www.quantum-espresso.org/quote.php

     Parallel version (MPI), running on     4 processors
     R & G space division:  proc/nbgrp/npool/nimage =       4

     Current dimensions of program PWSCF are:
     Max number of different atomic species (ntypx) = 10
     Max number of k-points (npk) =  40000
     Max angular momentum in pseudopotentials (lmaxx) =  3
     Waiting for input...
     Reading input from standard input

     Subspace diagonalization in iterative solution of the eigenvalue problem:
     a serial algorithm will be used

 
     Parallelization info
     --------------------
     sticks:   dense  smooth     PW     G-vecs:    dense   smooth      PW
     Min         396     396    112                10116    10116    1566
     Max         397     397    113                10119    10119    1567
     Sum        1585    1585    451                40467    40467    6267
 


     bravais-lattice index     =            0
     lattice parameter (alat)  =      12.0168  a.u.
     unit-cell volume          =    1187.3413 (a.u.)^3
     number of atoms/cell      =            8
     number of atomic types    =            2
     number of electrons       =       180.00
     number of Kohn-Sham states=          108
     kinetic-energy cutoff     =      40.0000  Ry
     charge density cutoff     =     160.0000  Ry
     convergence threshold     =      1.0E-04
     mixing beta               =       0.7000
     number of iterations used =            8  plain     mixing
     Exchange-correlation      = SLA-PZ-NOGX-NOGC ( 1 1 0 0 0)
     EXX-fraction              =        0.00
     nstep                     =           50


     celldm(1)=  12.016801  celldm(2)=   0.000000  celldm(3)=   0.000000
     celldm(4)=   0.000000  celldm(5)=   0.000000  celldm(6)=   0.000000

     crystal axes: (cart. coord. in units of alat)
               a(1) = (   1.000000   0.000000   0.000000 )  
               a(2) = (  -0.500000   0.866025   0.000000 )  
               a(3) = (   0.000000   0.000000   0.790093 )  

     reciprocal axes: (cart. coord. in units 2 pi/alat)
               b(1) = (  1.000000  0.577350  0.000000 )  
               b(2) = (  0.000000  1.154701  0.000000 )  
               b(3) = (  0.000000  0.000000  1.265674 )  


     PseudoPot. # 1 for Lu read from file:
     /home/cwx6513/pp.La/La.UPF
     MD5 check sum: 4fc038260c66a0bf25fb4835376efb80
     Pseudo is Norm-conserving, Zval = 25.0
     Generated in analytical, separable form
     Using radial grid of 1271 points,  6 beta functions with: 
                l(1) =   0
                l(2) =   0
                l(3) =   1
                l(4) =   1
                l(5) =   2
                l(6) =   3

     PseudoPot. # 2 for Pm read from file:
     /home/cwx6513/pp.La/Pm.UPF
     MD5 check sum: 0061344aafc48faba5d75831754de21b
     Pseudo is Norm-conserving, Zval = 15.0
     Generated in analytical, separable form
     Using radial grid of 1259 points,  6 beta functions with: 
                l(1) =   0
                l(2) =   0
                l(3) =   1
                l(4) =   1
                l(5) =   2
                l(6) =   3

     atomic species   valence    mass     pseudopotential
        Mg            25.00    24.30500     Lu( 1.00)
        Cd            15.00   112.41100     Pm( 1.00)

     24 Sym. Ops., with inversion, found (12 have fractional translation)



   Cartesian axes

     site n.     atom                  positions (alat units)
         1           Mg  tau(   1) = (   0.2478935   0.7204716   0.1975233  )
         2           Mg  tau(   2) = (   0.7478935   0.1455538   0.5925699  )
         3           Mg  tau(   3) = (   0.2521065   0.1455538   0.5925699  )
         4           Mg  tau(   4) = (  -0.2478935   0.7204716   0.1975233  )
         5           Mg  tau(   5) = (   0.0000000   0.2911075   0.1975233  )
         6           Mg  tau(   6) = (   0.5000000   0.5749179   0.5925699  )
         7           Cd  tau(   7) = (   0.5000005   0.2886748   0.1975233  )
         8           Cd  tau(   8) = (  -0.0000005   0.5773506   0.5925699  )

     number of k points=    64  gaussian smearing, width (Ry)=  0.1000
                       cart. coord. in units 2pi/alat
        k(    1) = (   0.0000000   0.0000000   0.0000000), wk =   0.0095238
        k(    2) = (   0.0000000   0.0000000   0.1808105), wk =   0.0190476
        k(    3) = (   0.0000000   0.0000000   0.3616210), wk =   0.0190476
        k(    4) = (   0.0000000   0.0000000   0.5424315), wk =   0.0190476
        k(    5) = (   0.0000000   0.1924501   0.0000000), wk =   0.0190476
        k(    6) = (   0.0000000   0.1924501   0.1808105), wk =   0.0380952
        k(    7) = (   0.0000000   0.1924501   0.3616210), wk =   0.0380952
        k(    8) = (   0.0000000   0.1924501   0.5424315), wk =   0.0380952
        k(    9) = (   0.0000000   0.3849002   0.0000000), wk =   0.0190476
        k(   10) = (   0.0000000   0.3849002   0.1808105), wk =   0.0380952
        k(   11) = (   0.0000000   0.3849002   0.3616210), wk =   0.0380952
        k(   12) = (   0.0000000   0.3849002   0.5424315), wk =   0.0380952
        k(   13) = (   0.0000000  -0.5773503   0.0000000), wk =   0.0095238
        k(   14) = (   0.0000000  -0.5773503   0.1808105), wk =   0.0190476
        k(   15) = (   0.0000000  -0.5773503   0.3616210), wk =   0.0190476
        k(   16) = (   0.0000000  -0.5773503   0.5424315), wk =   0.0190476
        k(   17) = (   0.2000000   0.1154701   0.0000000), wk =   0.0190476
        k(   18) = (   0.2000000   0.1154701   0.1808105), wk =   0.0380952
        k(   19) = (   0.2000000   0.1154701   0.3616210), wk =   0.0380952
        k(   20) = (   0.2000000   0.1154701   0.5424315), wk =   0.0380952
        k(   21) = (   0.2000000   0.3079201   0.0000000), wk =   0.0190476
        k(   22) = (   0.2000000   0.3079201   0.1808105), wk =   0.0380952
        k(   23) = (   0.2000000   0.3079201   0.3616210), wk =   0.0380952
        k(   24) = (   0.2000000   0.3079201   0.5424315), wk =   0.0380952
        k(   25) = (   0.2000000   0.5003702   0.0000000), wk =   0.0190476
        k(   26) = (   0.2000000   0.5003702   0.1808105), wk =   0.0380952
        k(   27) = (   0.2000000   0.5003702   0.3616210), wk =   0.0380952
        k(   28) = (   0.2000000   0.5003702   0.5424315), wk =   0.0380952
        k(   29) = (   0.2000000  -0.4618802   0.0000000), wk =   0.0190476
        k(   30) = (   0.2000000  -0.4618802   0.1808105), wk =   0.0380952
        k(   31) = (   0.2000000  -0.4618802   0.3616210), wk =   0.0380952
        k(   32) = (   0.2000000  -0.4618802   0.5424315), wk =   0.0380952
        k(   33) = (   0.2000000  -0.2694301   0.0000000), wk =   0.0190476
        k(   34) = (   0.2000000  -0.2694301   0.1808105), wk =   0.0380952
        k(   35) = (   0.2000000  -0.2694301   0.3616210), wk =   0.0380952
        k(   36) = (   0.2000000  -0.2694301   0.5424315), wk =   0.0380952
        k(   37) = (   0.2000000  -0.0769800   0.0000000), wk =   0.0190476
        k(   38) = (   0.2000000  -0.0769800   0.1808105), wk =   0.0380952
        k(   39) = (   0.2000000  -0.0769800   0.3616210), wk =   0.0380952
        k(   40) = (   0.2000000  -0.0769800   0.5424315), wk =   0.0380952
        k(   41) = (   0.4000000   0.2309401   0.0000000), wk =   0.0190476
        k(   42) = (   0.4000000   0.2309401   0.1808105), wk =   0.0380952
        k(   43) = (   0.4000000   0.2309401   0.3616210), wk =   0.0380952
        k(   44) = (   0.4000000   0.2309401   0.5424315), wk =   0.0380952
        k(   45) = (   0.4000000   0.4233902   0.0000000), wk =   0.0190476
        k(   46) = (   0.4000000   0.4233902   0.1808105), wk =   0.0380952
        k(   47) = (   0.4000000   0.4233902   0.3616210), wk =   0.0380952
        k(   48) = (   0.4000000   0.4233902   0.5424315), wk =   0.0380952
        k(   49) = (   0.4000000   0.6158403   0.0000000), wk =   0.0190476
        k(   50) = (   0.4000000   0.6158403   0.1808105), wk =   0.0380952
        k(   51) = (   0.4000000   0.6158403   0.3616210), wk =   0.0380952
        k(   52) = (   0.4000000   0.6158403   0.5424315), wk =   0.0380952
        k(   53) = (   0.4000000  -0.3464102   0.0000000), wk =   0.0190476
        k(   54) = (   0.4000000  -0.3464102   0.1808105), wk =   0.0380952
        k(   55) = (   0.4000000  -0.3464102   0.3616210), wk =   0.0380952
        k(   56) = (   0.4000000  -0.3464102   0.5424315), wk =   0.0380952
        k(   57) = (   0.4000000  -0.1539601   0.0000000), wk =   0.0190476
        k(   58) = (   0.4000000  -0.1539601   0.1808105), wk =   0.0380952
        k(   59) = (   0.4000000  -0.1539601   0.3616210), wk =   0.0380952
        k(   60) = (   0.4000000  -0.1539601   0.5424315), wk =   0.0380952
        k(   61) = (   0.4000000   0.0384900   0.0000000), wk =   0.0190476
        k(   62) = (   0.4000000   0.0384900   0.1808105), wk =   0.0380952
        k(   63) = (   0.4000000   0.0384900   0.3616210), wk =   0.0380952
        k(   64) = (   0.4000000   0.0384900   0.5424315), wk =   0.0380952

     Dense  grid:    40467 G-vectors     FFT dimensions: (  50,  50,  40)

     Largest allocated arrays     est. size (Mb)     dimensions
        Kohn-Sham Wavefunctions         2.14 Mb     (   1298,  108)
        NL pseudopotentials             3.17 Mb     (   1298,  160)
        Each V/rho on FFT grid          0.38 Mb     (  25000)
        Each G-vector array             0.08 Mb     (  10119)
        G-vector shells                 0.08 Mb     (  10119)
     Largest temporary arrays     est. size (Mb)     dimensions
        Each subspace H/S matrix        0.18 Mb     ( 108, 108)
        Each <psi_i|beta_j> matrix      0.26 Mb     (    160,  108)
        Arrays for rho mixing           3.05 Mb     (  25000,   8)

     Initial potential from superposition of free atoms

     Starting from uniform charge
     Starting wfc are    0 randomized atomic wfcs

     total cpu time spent up to now is       10.3 secs

     Self-consistent Calculation

     iteration #  1     ecut=    40.00 Ry     beta=0.70
     CG style diagonalization
     c_bands:  4 eigenvalues not converged
     c_bands:  5 eigenvalues not converged
     c_bands:  4 eigenvalues not converged
     c_bands:  5 eigenvalues not converged
     c_bands:  3 eigenvalues not converged
     c_bands:  4 eigenvalues not converged
     c_bands:  5 eigenvalues not converged
     c_bands:  5 eigenvalues not converged
     c_bands:  4 eigenvalues not converged
     c_bands:  3 eigenvalues not converged
     c_bands:  5 eigenvalues not converged
     c_bands:  5 eigenvalues not converged
     c_bands:  5 eigenvalues not converged
     c_bands:  5 eigenvalues not converged
     c_bands:  5 eigenvalues not converged
     ethr =  1.00E-02,  avg # of iterations = 17.4

     total cpu time spent up to now is      229.1 secs

     total energy              =   -2203.80158424 Ry
     Harris-Foulkes estimate   =   -4098.93023806 Ry
     estimated scf accuracy    <    2296.13347811 Ry

     iteration #  2     ecut=    40.00 Ry     beta=0.70
     CG style diagonalization
     c_bands:  4 eigenvalues not converged
     c_bands:  5 eigenvalues not converged
     c_bands:  4 eigenvalues not converged
     c_bands:  2 eigenvalues not converged
     c_bands:  4 eigenvalues not converged
     c_bands:  4 eigenvalues not converged
     c_bands:  3 eigenvalues not converged
     c_bands:  4 eigenvalues not converged
     c_bands:  4 eigenvalues not converged
     c_bands:  5 eigenvalues not converged
     c_bands:  4 eigenvalues not converged
     c_bands:  4 eigenvalues not converged
     c_bands:  3 eigenvalues not converged
     c_bands:  1 eigenvalues not converged
     c_bands:  2 eigenvalues not converged
     c_bands:  5 eigenvalues not converged
     c_bands:  3 eigenvalues not converged
     c_bands:  1 eigenvalues not converged
     c_bands:  4 eigenvalues not converged
     c_bands:  5 eigenvalues not converged
     c_bands:  4 eigenvalues not converged
     c_bands:  5 eigenvalues not converged
     c_bands:  3 eigenvalues not converged
     c_bands:  2 eigenvalues not converged
     c_bands:  3 eigenvalues not converged
     c_bands:  5 eigenvalues not converged
     c_bands:  2 eigenvalues not converged
     c_bands:  5 eigenvalues not converged
     c_bands:  3 eigenvalues not converged
     c_bands:  4 eigenvalues not converged
     c_bands:  5 eigenvalues not converged
     c_bands:  3 eigenvalues not converged
     c_bands:  5 eigenvalues not converged
     c_bands:  5 eigenvalues not converged
     c_bands:  2 eigenvalues not converged
     c_bands:  3 eigenvalues not converged
     c_bands:  5 eigenvalues not converged
     c_bands:  4 eigenvalues not converged
     c_bands:  4 eigenvalues not converged
     c_bands:  2 eigenvalues not converged
     ethr =  1.00E-02,  avg # of iterations = 15.4

     total cpu time spent up to now is      415.7 secs

     total energy              =   -2200.90852891 Ry
     Harris-Foulkes estimate   =   -3519.41280761 Ry
     estimated scf accuracy    <    2466.23591977 Ry

     iteration #  3     ecut=    40.00 Ry     beta=0.70
     CG style diagonalization
     c_bands:  4 eigenvalues not converged
     c_bands:  4 eigenvalues not converged
     c_bands:  4 eigenvalues not converged
     c_bands:  2 eigenvalues not converged
     c_bands:  3 eigenvalues not converged
     c_bands:  1 eigenvalues not converged
     c_bands:  4 eigenvalues not converged
     c_bands:  4 eigenvalues not converged
     c_bands:  5 eigenvalues not converged
     c_bands:  3 eigenvalues not converged
     c_bands:  3 eigenvalues not converged
     c_bands:  3 eigenvalues not converged
     c_bands:  3 eigenvalues not converged
     c_bands:  3 eigenvalues not converged
     c_bands:  1 eigenvalues not converged
     c_bands:  4 eigenvalues not converged
     c_bands:  3 eigenvalues not converged
     c_bands:  2 eigenvalues not converged
     c_bands:  5 eigenvalues not converged
     c_bands:  1 eigenvalues not converged
     c_bands:  2 eigenvalues not converged
     c_bands:  3 eigenvalues not converged
     c_bands:  5 eigenvalues not converged
     c_bands:  1 eigenvalues not converged
     c_bands:  4 eigenvalues not converged
     c_bands:  2 eigenvalues not converged
     c_bands:  5 eigenvalues not converged
     c_bands:  3 eigenvalues not converged
     c_bands:  1 eigenvalues not converged
     c_bands:  3 eigenvalues not converged
     c_bands:  5 eigenvalues not converged
     c_bands:  1 eigenvalues not converged
     c_bands:  3 eigenvalues not converged
     c_bands:  1 eigenvalues not converged
     c_bands:  4 eigenvalues not converged
     c_bands:  4 eigenvalues not converged
     c_bands:  2 eigenvalues not converged
     c_bands:  4 eigenvalues not converged
     c_bands:  2 eigenvalues not converged
     c_bands:  2 eigenvalues not converged
     c_bands:  5 eigenvalues not converged
     c_bands:  5 eigenvalues not converged
     c_bands:  4 eigenvalues not converged
     c_bands:  5 eigenvalues not converged
     c_bands:  3 eigenvalues not converged
     c_bands:  5 eigenvalues not converged
     c_bands:  1 eigenvalues not converged
     c_bands:  5 eigenvalues not converged
     ethr =  1.00E-02,  avg # of iterations = 13.9

     total cpu time spent up to now is      594.4 secs

     total energy              =   -2907.38535835 Ry
     Harris-Foulkes estimate   =   -3140.18074839 Ry
     estimated scf accuracy    <     564.04421305 Ry

     iteration #  4     ecut=    40.00 Ry     beta=0.70
     CG style diagonalization
     c_bands:  1 eigenvalues not converged
     ethr =  1.00E-02,  avg # of iterations =  7.8

     total cpu time spent up to now is      699.3 secs

     total energy              =   -2976.40671899 Ry
     Harris-Foulkes estimate   =   -3010.42960669 Ry
     estimated scf accuracy    <      88.60506370 Ry

     iteration #  5     ecut=    40.00 Ry     beta=0.70
     CG style diagonalization
     ethr =  1.00E-02,  avg # of iterations =  4.2

     total cpu time spent up to now is      752.1 secs

     total energy              =   -2979.14621228 Ry
     Harris-Foulkes estimate   =   -2986.25157923 Ry
     estimated scf accuracy    <      20.02681025 Ry

     iteration #  6     ecut=    40.00 Ry     beta=0.70
     CG style diagonalization
     ethr =  1.00E-02,  avg # of iterations =  3.4

     total cpu time spent up to now is      793.9 secs

     total energy              =   -2979.17550171 Ry
     Harris-Foulkes estimate   =   -2980.96685660 Ry
     estimated scf accuracy    <       3.53439396 Ry

     iteration #  7     ecut=    40.00 Ry     beta=0.70
     CG style diagonalization
     ethr =  1.96E-03,  avg # of iterations =  4.4

     total cpu time spent up to now is      851.8 secs

     total energy              =   -2980.12325481 Ry
     Harris-Foulkes estimate   =   -2980.82448444 Ry
     estimated scf accuracy    <       1.52131015 Ry

     iteration #  8     ecut=    40.00 Ry     beta=0.70
     CG style diagonalization
     ethr =  8.45E-04,  avg # of iterations =  3.4

     total cpu time spent up to now is      894.2 secs

     total energy              =   -2980.50108061 Ry
     Harris-Foulkes estimate   =   -2980.60338398 Ry
     estimated scf accuracy    <       0.34685647 Ry

     iteration #  9     ecut=    40.00 Ry     beta=0.70
     CG style diagonalization
     c_bands:  1 eigenvalues not converged
     ethr =  1.93E-04,  avg # of iterations =  3.4

     total cpu time spent up to now is      936.9 secs

     total energy              =   -2980.55190747 Ry
     Harris-Foulkes estimate   =   -2980.55233697 Ry
     estimated scf accuracy    <       0.00847853 Ry

     iteration # 10     ecut=    40.00 Ry     beta=0.70
     CG style diagonalization
     c_bands:  1 eigenvalues not converged
     c_bands:  1 eigenvalues not converged
     c_bands:  1 eigenvalues not converged
     c_bands:  2 eigenvalues not converged
     c_bands:  1 eigenvalues not converged
     c_bands:  1 eigenvalues not converged
     c_bands:  1 eigenvalues not converged
     c_bands:  1 eigenvalues not converged
     c_bands:  1 eigenvalues not converged
     c_bands:  1 eigenvalues not converged
     c_bands:  1 eigenvalues not converged
     c_bands:  1 eigenvalues not converged
     c_bands:  1 eigenvalues not converged
     c_bands:  1 eigenvalues not converged
     c_bands:  1 eigenvalues not converged
     c_bands:  2 eigenvalues not converged
     c_bands:  2 eigenvalues not converged
     c_bands:  1 eigenvalues not converged
     c_bands:  1 eigenvalues not converged
     c_bands:  1 eigenvalues not converged
     c_bands:  1 eigenvalues not converged
     c_bands:  1 eigenvalues not converged
     c_bands:  1 eigenvalues not converged
     c_bands:  1 eigenvalues not converged
     c_bands:  2 eigenvalues not converged
     c_bands:  1 eigenvalues not converged
     c_bands:  1 eigenvalues not converged
     ethr =  4.71E-06,  avg # of iterations =  5.5

     total cpu time spent up to now is     1008.0 secs

     total energy              =   -2980.55626825 Ry
     Harris-Foulkes estimate   =   -2980.55822710 Ry
     estimated scf accuracy    <       0.01078016 Ry

     iteration # 11     ecut=    40.00 Ry     beta=0.70
     CG style diagonalization
     c_bands:  1 eigenvalues not converged
     c_bands:  1 eigenvalues not converged
     ethr =  4.71E-06,  avg # of iterations =  3.0

     total cpu time spent up to now is     1044.8 secs

     total energy              =   -2980.55548468 Ry
     Harris-Foulkes estimate   =   -2980.55666243 Ry
     estimated scf accuracy    <       0.00350623 Ry

     iteration # 12     ecut=    40.00 Ry     beta=0.70
     CG style diagonalization
     c_bands:  1 eigenvalues not converged
     c_bands:  1 eigenvalues not converged
     c_bands:  1 eigenvalues not converged
     c_bands:  1 eigenvalues not converged
     ethr =  1.95E-06,  avg # of iterations =  3.3

     total cpu time spent up to now is     1085.9 secs

     End of self-consistent calculation

          k = 0.0000 0.0000 0.0000 (  5047 PWs)   bands (ev):

  -109.4614-109.4614-109.4531-109.3728-109.3728-109.3201 -64.9697 -64.9429
   -64.9428 -64.9198 -64.9197 -64.9192 -64.9191 -64.9174 -64.9169 -64.9148
   -64.9128 -64.9127 -64.8964 -64.8846 -64.8821 -64.8821 -64.8786 -64.8786
   -25.5073 -25.5051  -4.4768  -4.4685  -4.4525  -4.4525  -4.3886  -4.3421
    -4.3421  -4.3361  -4.3127  -4.3127  -4.2629  -4.2629  -4.2480  -4.1848
    -4.1611  -4.1610  -4.1606  -4.1086  -4.1085  -4.0589  -4.0588  -4.0423
    -4.0423  -3.9982  -3.9982  -3.9418  -3.9418  -3.9416  -3.9055  -3.8980
    -2.2760  -2.2363  -2.2363  -2.2266  -2.2076  -2.2076   8.7563  12.4914
    12.4914  12.7924  14.6598  14.6598  16.4262  17.6333  18.8262  20.0885
    20.0886  20.5385  20.5385  21.2874  21.2875  21.8171  21.8171  23.5862
    24.5975  24.5975  24.6673  25.9090  25.9217  25.9218  26.0099  26.8013
    26.8014  27.1945  27.1945  27.8479  28.0936  28.0936  28.1144  28.6636
    29.2857  29.2857  29.7916  31.1050  31.7074  31.7073  32.1256  32.5149
    32.7582  33.1875  33.1875  34.5164

          k = 0.0000 0.0000 0.1808 (  5065 PWs)   bands (ev):

  -109.4484-109.4427-109.4427-109.4282-109.4281-109.3720 -64.9570 -64.9450
   -64.9449 -64.9384 -64.9265 -64.9265 -64.9265 -64.9265 -64.9185 -64.9106
   -64.9078 -64.9078 -64.9067 -64.8902 -64.8853 -64.8853 -64.8833 -64.8833
   -25.5071 -25.5052  -4.4690  -4.4491  -4.4490  -4.4490  -4.3651  -4.3630
    -4.3630  -4.3370  -4.3085  -4.3084  -4.2737  -4.2737  -4.2481  -4.2452
    -4.1423  -4.1422  -4.1125  -4.1045  -4.1044  -4.0612  -4.0612  -4.0400
    -4.0400  -4.0228  -4.0228  -3.9595  -3.9255  -3.9255  -3.9101  -3.9000
    -2.2868  -2.2476  -2.2380  -2.2380  -2.2077  -2.2077   8.8907  12.4983
    12.5842  12.5843  14.5766  14.5766  16.5623  17.3599  19.1608  19.1608
    19.5467  20.2980  20.2980  21.7821  21.7822  22.9982  22.9982  23.7667
    24.5570  24.6272  24.6272  25.2558  25.8173  25.8173  25.8335  26.6424
    26.6424  26.8797  26.9483  26.9483  28.2686  28.3455  28.3455  29.2014
    29.3598  29.3598  30.5095  31.0449  31.8461  31.8462  32.1740  32.2471
    32.7159  33.0968  33.0969  34.7644

          k = 0.0000 0.0000 0.3616 (  5047 PWs)   bands (ev):

  -109.4340-109.4259-109.4258-109.4220-109.4220-109.3186 -64.9421 -64.9384
   -64.9384 -64.9328 -64.9327 -64.9287 -64.9238 -64.9111 -64.9103 -64.9103
   -64.9091 -64.9030 -64.9029 -64.8941 -64.8927 -64.8926 -64.8721 -64.8720
   -25.5068 -25.5054  -4.4535  -4.4406  -4.4406  -4.4127  -4.3913  -4.3912
    -4.3405  -4.3027  -4.3026  -4.3024  -4.3004  -4.2911  -4.2911  -4.2286
    -4.1216  -4.1215  -4.0998  -4.0998  -4.0884  -4.0635  -4.0635  -4.0491
    -4.0490  -4.0170  -4.0112  -4.0111  -3.9144  -3.9094  -3.9094  -3.9014
    -2.3089  -2.2915  -2.2324  -2.2324  -2.2115  -2.2115   9.3005  11.7600
    12.8742  12.8743  14.2957  14.2958  16.9184  17.3076  18.5044  18.5044
    19.3414  19.3414  20.5801  23.3368  23.3368  23.3828  24.2889  24.4203
    24.4203  24.7333  24.7333  24.9990  25.5890  25.5890  25.6641  26.4427
    26.4906  26.4906  26.5224  26.5224  27.3080  28.5960  28.5960  29.2257
    29.2257  30.1945  30.7189  30.8651  31.7568  31.9228  32.0781  32.0779
    32.9360  32.9362  33.1407  34.2662

          k = 0.0000 0.0000 0.5424 (  5041 PWs)   bands (ev):

  -109.4430-109.4430-109.4019-109.4019-109.3639-109.3583 -64.9401 -64.9401
   -64.9334 -64.9334 -64.9294 -64.9266 -64.9099 -64.9099 -64.9091 -64.9064
   -64.9054 -64.9054 -64.9053 -64.8971 -64.8837 -64.8837 -64.8814 -64.8813
   -25.5063 -25.5058  -4.4283  -4.4282  -4.4264  -4.4124  -4.4124  -4.4071
    -4.3407  -4.3288  -4.3013  -4.3012  -4.2991  -4.2991  -4.2118  -4.1721
    -4.1175  -4.1175  -4.1104  -4.1103  -4.1103  -4.1100  -4.0650  -4.0649
    -4.0628  -4.0628  -3.9602  -3.9602  -3.9219  -3.9219  -3.9104  -3.9063
    -2.3309  -2.3283  -2.2245  -2.2245  -2.2171  -2.2171   9.9775  10.8310
    13.3215  13.3216  13.8298  13.8298  17.3032  17.4303  18.3667  18.3667
    18.6761  18.6761  21.2783  22.0992  24.6157  24.6157  24.9389  24.9389
    25.0695  25.0696  25.1205  25.1661  25.3315  25.3315  25.4123  26.1751
    26.6417  26.6417  26.7937  26.7937  27.2359  28.2847  28.2847  28.4690
    28.4690  28.9599  30.7295  30.8015  31.7284  31.8084  32.3760  32.3758
    32.7560  32.7561  33.8947  33.9075

          k = 0.0000 0.1925 0.0000 (  5083 PWs)   bands (ev):

  -109.5017-109.4886-109.4452-109.4357-109.4189-109.3792 -64.9622 -64.9509
   -64.9440 -64.9321 -64.9320 -64.9275 -64.9247 -64.9236 -64.9214 -64.9174
   -64.9174 -64.9168 -64.9080 -64.8952 -64.8928 -64.8925 -64.8844 -64.8833
   -25.5071 -25.5052  -4.4626  -4.4532  -4.4465  -4.4318  -4.4012  -4.3477
    -4.3350  -4.3266  -4.3053  -4.2888  -4.2690  -4.2569  -4.2561  -4.1887
    -4.1821  -4.1723  -4.1511  -4.1144  -4.1094  -4.0788  -4.0653  -4.0434
    -4.0432  -4.0118  -3.9992  -3.9791  -3.9646  -3.9389  -3.9154  -3.9093
    -2.2718  -2.2449  -2.2335  -2.2298  -2.1926  -2.1877   8.8929  12.0104
    12.4327  12.7643  14.6423  14.8014  17.0116  17.6567  19.1538  19.9071
    19.9086  20.0141  20.2526  21.2871  21.7253  22.1533  22.1857  22.5668
    24.5930  25.2717  25.5824  25.5960  25.7149  25.8785  25.9485  26.1748
    26.6784  26.6975  26.7679  27.4832  28.0081  28.5165  28.5339  29.0733
    29.0905  29.5545  29.9454  31.3435  31.7800  31.8072  32.0177  32.4856
    32.8810  33.4934  33.5557  34.4710

          k = 0.0000 0.1925 0.1808 (  5077 PWs)   bands (ev):

  -109.4935-109.4793-109.4321-109.4262-109.4119-109.3920 -64.9529 -64.9496
   -64.9440 -64.9368 -64.9313 -64.9293 -64.9244 -64.9226 -64.9187 -64.9178
   -64.9149 -64.9105 -64.9098 -64.8950 -64.8943 -64.8897 -64.8839 -64.8805
   -25.5070 -25.5052  -4.4581  -4.4469  -4.4336  -4.4286  -4.3820  -4.3633
    -4.3466  -4.3227  -4.3077  -4.2863  -4.2843  -4.2664  -4.2459  -4.2360
    -4.1505  -4.1487  -4.1248  -4.1087  -4.1073  -4.0785  -4.0639  -4.0461
    -4.0416  -4.0305  -4.0240  -3.9764  -3.9474  -3.9340  -3.9222  -3.9126
    -2.2853  -2.2530  -2.2418  -2.2270  -2.1936  -2.1882   9.0307  12.1154
    12.5322  12.5525  14.3784  14.6872  17.1250  17.7315  18.8318  19.0674
    19.6582  20.3603  20.6439  21.4489  21.5238  22.7712  23.0692  23.3106
    24.5545  24.7706  25.2745  25.4278  25.7240  25.8112  25.8722  26.3240
    26.5139  26.6807  26.6954  27.3379  27.6859  28.0516  28.7647  29.3127
    29.4401  29.6511  30.5840  31.3175  31.8386  31.9298  32.2333  32.4023
    32.6391  33.4512  33.4684  34.2289

          k = 0.0000 0.1925 0.3616 (  5061 PWs)   bands (ev):

  -109.4584-109.4441-109.4317-109.4298-109.4024-109.3688 -64.9424 -64.9401
   -64.9373 -64.9358 -64.9305 -64.9290 -64.9217 -64.9194 -64.9170 -64.9122
   -64.9101 -64.9064 -64.9025 -64.8970 -64.8965 -64.8898 -64.8854 -64.8784
   -25.5067 -25.5055  -4.4447  -4.4372  -4.4202  -4.4057  -4.3852  -4.3807
    -4.3280  -4.3168  -4.3092  -4.2900  -4.2889  -4.2787  -4.2761  -4.2273
    -4.1341  -4.1236  -4.1174  -4.1101  -4.0934  -4.0685  -4.0660  -4.0568
    -4.0533  -4.0236  -4.0221  -4.0089  -3.9345  -3.9321  -3.9301  -3.9065
    -2.3127  -2.2975  -2.2344  -2.2181  -2.1987  -2.1908   9.4405  11.8399
    12.4649  12.8230  13.9375  14.3451  17.4240  17.7610  18.3509  18.5542
    19.3644  19.6853  20.7231  22.5181  22.8995  23.4150  23.6231  24.2114
    24.3657  24.6561  25.0845  25.2148  25.4914  25.9022  26.0409  26.1596
    26.3294  26.5472  26.5618  27.0146  27.8276  27.8703  28.4972  29.0662
    29.5495  30.4724  30.6294  31.2022  31.5161  31.9721  32.1316  32.3221
    33.1856  33.3290  33.4494  33.8412

          k = 0.0000 0.1925 0.5424 (  5050 PWs)   bands (ev):

  -109.4553-109.4425-109.4332-109.4131-109.3806-109.3476 -64.9442 -64.9417
   -64.9376 -64.9369 -64.9334 -64.9307 -64.9162 -64.9108 -64.9105 -64.9088
   -64.9067 -64.9033 -64.9010 -64.8979 -64.8880 -64.8876 -64.8825 -64.8780
   -25.5062 -25.5058  -4.4303  -4.4283  -4.4103  -4.3970  -4.3960  -4.3920
    -4.3355  -4.3261  -4.2990  -4.2930  -4.2919  -4.2855  -4.2188  -4.1738
    -4.1361  -4.1277  -4.1237  -4.1191  -4.1148  -4.1081  -4.0659  -4.0651
    -4.0580  -4.0576  -3.9807  -3.9643  -3.9446  -3.9379  -3.9306  -3.9165
    -2.3355  -2.3326  -2.2224  -2.2087  -2.2075  -2.1980  10.1064  10.9542
    12.9206  13.2735  13.4508  13.8205  17.6892  17.8104  18.3917  18.5505
    18.6750  18.9589  21.5172  22.2533  23.2993  23.9998  24.2376  24.6529
    24.7117  24.7499  24.9437  25.1675  25.4462  25.5560  26.2260  26.5738
    26.7931  26.8958  27.0746  27.3585  27.4260  27.8452  28.0996  28.1318
    28.8554  29.3558  30.7563  30.8935  31.6056  32.1105  32.5580  32.6107
    33.0832  33.1000  33.6031  33.7202

          k = 0.0000 0.3849 0.0000 (  5079 PWs)   bands (ev):

  -109.4995-109.4715-109.4505-109.4256-109.4092-109.4007 -64.9538 -64.9403
   -64.9368 -64.9352 -64.9317 -64.9273 -64.9243 -64.9203 -64.9187 -64.9187
   -64.9104 -64.9092 -64.9066 -64.9037 -64.9013 -64.9008 -64.8904 -64.8826
   -25.5067 -25.5054  -4.4493  -4.4166  -4.4101  -4.3995  -4.3694  -4.3517
    -4.3333  -4.3234  -4.2946  -4.2850  -4.2648  -4.2404  -4.2358  -4.1986
    -4.1913  -4.1717  -4.1457  -4.1300  -4.1070  -4.1060  -4.0782  -4.0506
    -4.0382  -4.0370  -4.0364  -4.0285  -4.0015  -3.9939  -3.9176  -3.9167
    -2.2572  -2.2484  -2.2318  -2.2192  -2.1687  -2.1523   9.2928  11.1313
    12.3430  12.7271  14.5967  15.1090  17.7022  18.1955  19.1239  19.6449
    19.6487  19.8500  19.8570  21.5483  21.8519  22.7704  22.7886  22.9929
    23.5723  24.6149  24.9818  25.0623  25.2532  25.5085  25.5560  25.8852
    26.3616  26.8402  27.5712  27.9747  28.0818  28.6968  28.9504  29.2498
    29.7699  30.3212  30.4328  31.6256  31.8140  31.9385  32.0413  32.2510
    33.2316  33.4979  33.6661  33.9667

          k = 0.0000 0.3849 0.1808 (  5090 PWs)   bands (ev):

  -109.4985-109.4886-109.4611-109.4542-109.4144-109.4032 -64.9517 -64.9467
   -64.9428 -64.9351 -64.9320 -64.9301 -64.9234 -64.9233 -64.9195 -64.9176
   -64.9137 -64.9120 -64.9094 -64.9060 -64.9014 -64.9004 -64.8964 -64.8855
   -25.5066 -25.5054  -4.4469  -4.4142  -4.3981  -4.3949  -4.3702  -4.3607
    -4.3326  -4.3282  -4.3047  -4.2745  -4.2559  -4.2521  -4.2341  -4.2091
    -4.1704  -4.1632  -4.1415  -4.1229  -4.1103  -4.1054  -4.0786  -4.0761
    -4.0533  -4.0350  -4.0339  -4.0044  -4.0027  -3.9918  -3.9387  -3.9107
    -2.2791  -2.2573  -2.2441  -2.2074  -2.1719  -2.1518   9.4277  11.2487
    12.4372  12.6441  14.0530  14.9222  17.9601  18.1741  18.7837  19.1044
    19.8476  20.3779  20.4082  21.6556  21.6585  22.2313  23.3327  23.5742
    23.6332  24.2085  24.7595  24.9008  25.2437  25.5415  25.9168  26.2099
    26.2881  27.0545  27.6046  27.7732  27.9789  28.2767  28.9591  29.3841
    29.6791  30.4399  30.8674  31.3694  31.4577  32.1946  32.4088  32.5769
    32.7679  32.8898  33.8002  34.1171

          k = 0.0000 0.3849 0.3616 (  5078 PWs)   bands (ev):

  -109.4792-109.4707-109.4435-109.4402-109.4189-109.3895 -64.9490 -64.9472
   -64.9398 -64.9358 -64.9300 -64.9292 -64.9229 -64.9220 -64.9172 -64.9123
   -64.9092 -64.9088 -64.9059 -64.9052 -64.9008 -64.8964 -64.8911 -64.8851
   -25.5063 -25.5056  -4.4389  -4.4236  -4.3924  -4.3765  -4.3583  -4.3538
    -4.3248  -4.3221  -4.3160  -4.2681  -4.2631  -4.2401  -4.2360  -4.2220
    -4.1692  -4.1312  -4.1296  -4.1222  -4.1195  -4.1006  -4.0937  -4.0743
    -4.0601  -4.0304  -4.0290  -4.0040  -3.9944  -3.9879  -3.9747  -3.9043
    -2.3159  -2.3043  -2.2314  -2.1902  -2.1811  -2.1537   9.8251  11.5635
    12.2188  12.7316  13.2897  14.4278  17.4648  18.2490  18.8918  19.4237
    19.7068  20.2658  21.0540  21.4370  22.1510  23.1133  23.2712  23.5209
    23.8189  24.1763  24.6765  24.7956  25.0926  25.8101  25.8281  26.3779
    26.9460  27.2089  27.5997  27.7923  27.8925  28.2679  28.8122  29.0548
    29.5786  30.2765  30.8772  30.9866  31.7360  31.9397  32.1969  32.2980
    32.9624  33.4693  33.7272  33.7938

          k = 0.0000 0.3849 0.5424 (  5051 PWs)   bands (ev):

  -109.4532-109.4287-109.4268-109.4142-109.3849-109.3695 -64.9435 -64.9410
   -64.9378 -64.9364 -64.9272 -64.9200 -64.9159 -64.9150 -64.9104 -64.9093
   -64.9074 -64.9034 -64.9026 -64.8984 -64.8939 -64.8917 -64.8862 -64.8803
   -25.5060 -25.5058  -4.4313  -4.4289  -4.3818  -4.3724  -4.3633  -4.3621
    -4.3271  -4.3076  -4.2808  -4.2625  -4.2607  -4.2456  -4.2366  -4.1853
    -4.1658  -4.1526  -4.1329  -4.1322  -4.1157  -4.1113  -4.0781  -4.0707
    -4.0587  -4.0536  -4.0218  -4.0031  -4.0003  -3.9955  -3.9459  -3.9155
    -2.3419  -2.3395  -2.2131  -2.1954  -2.1736  -2.1614  10.4655  11.2791
    12.1718  12.7287  13.2023  13.8001  17.4536  17.9060  19.1083  19.5430
    19.6229  19.7063  21.9293  22.0374  22.2791  22.6110  23.3244  23.7517
    23.9764  24.6035  24.6360  24.8967  25.2009  25.6334  25.9823  26.7167
    26.9677  27.3246  27.6297  27.9878  28.1735  28.2336  28.6211  28.8076
    29.1851  29.7692  30.6554  30.7210  31.5074  31.9511  32.3303  32.4545
    32.6384  33.4512  33.8503  33.8856

          k = 0.0000-0.5774 0.0000 (  5068 PWs)   bands (ev):

  -109.4590-109.4414-109.4396-109.4371-109.4122-109.3997 -64.9581 -64.9415
   -64.9393 -64.9218 -64.9213 -64.9198 -64.9179 -64.9173 -64.9168 -64.9124
   -64.9094 -64.9092 -64.9075 -64.9011 -64.8985 -64.8978 -64.8959 -64.8890
   -25.5063 -25.5056  -4.4434  -4.4245  -4.3680  -4.3466  -4.3447  -4.3402
    -4.3284  -4.3187  -4.3071  -4.3055  -4.2925  -4.2587  -4.2352  -4.1702
    -4.1537  -4.1393  -4.1312  -4.1203  -4.1160  -4.1103  -4.1024  -4.0867
    -4.0854  -4.0694  -4.0410  -4.0369  -4.0288  -4.0096  -3.9210  -3.9141
    -2.2504  -2.2484  -2.2364  -2.2090  -2.1560  -2.1348   9.6801  10.5635
    12.2998  12.6985  14.5925  15.2878  17.7252  18.6287  18.8961  19.5398
    19.5452  19.6516  20.5405  21.2887  22.1994  23.0821  23.1290  23.5388
    23.6022  23.7639  24.2257  24.2957  24.8914  25.2639  25.2750  25.7375
    26.1428  27.3172  27.6503  27.9605  28.5258  29.3253  29.5526  29.5643
    30.4919  30.5845  30.7654  31.4742  31.6156  32.0787  32.1627  32.2469
    32.2516  32.7979  33.2763  34.2336

          k = 0.0000-0.5774 0.1808 (  5072 PWs)   bands (ev):

  -109.4722-109.4604-109.4519-109.4266-109.4024-109.3967 -64.9580 -64.9461
   -64.9355 -64.9302 -64.9259 -64.9210 -64.9204 -64.9185 -64.9167 -64.9127
   -64.9091 -64.9084 -64.9055 -64.9048 -64.8983 -64.8973 -64.8935 -64.8865
   -25.5063 -25.5056  -4.4419  -4.4024  -4.3979  -4.3704  -4.3367  -4.3354
    -4.3296  -4.3209  -4.3145  -4.2738  -4.2649  -4.2465  -4.2264  -4.1874
    -4.1517  -4.1516  -4.1374  -4.1331  -4.1164  -4.1117  -4.0996  -4.0946
    -4.0774  -4.0530  -4.0428  -4.0286  -4.0225  -4.0137  -3.9440  -3.9078
    -2.2734  -2.2589  -2.2432  -2.1957  -2.1616  -2.1327   9.8079  10.6933
    12.4018  12.6895  13.9231  15.0505  17.8950  18.3116  19.1483  19.3927
    19.7279  20.3120  20.6222  21.8927  21.9278  22.5557  22.7184  23.0336
    23.2810  24.1193  24.5271  24.7869  24.9705  25.3495  25.7876  25.7994
    26.0340  27.3850  27.7664  27.9969  28.5533  29.4203  29.4815  29.5789
    29.7282  30.3653  30.6252  31.2296  31.8013  31.8330  32.2952  32.4007
    32.4736  33.2397  33.5820  34.0181

          k = 0.0000-0.5774 0.3616 (  5090 PWs)   bands (ev):

  -109.5135-109.4767-109.4602-109.4558-109.4165-109.3926 -64.9523 -64.9511
   -64.9421 -64.9366 -64.9335 -64.9290 -64.9224 -64.9221 -64.9195 -64.9154
   -64.9137 -64.9112 -64.9088 -64.9082 -64.8997 -64.8982 -64.8946 -64.8875
   -25.5061 -25.5057  -4.4363  -4.4213  -4.3893  -4.3531  -4.3425  -4.3346
    -4.3325  -4.3298  -4.2989  -4.2335  -4.2334  -4.2327  -4.2180  -4.2142
    -4.1840  -4.1445  -4.1373  -4.1312  -4.1283  -4.1180  -4.1169  -4.0719
    -4.0638  -4.0596  -4.0416  -4.0209  -4.0208  -4.0053  -3.9918  -3.9026
    -2.3156  -2.3079  -2.2290  -2.1779  -2.1731  -2.1368  10.1893  11.0497
    12.5712  12.6908  12.7834  14.4578  17.2678  18.3560  19.4022  19.9068
    20.3893  20.6944  21.1881  21.7490  21.8174  21.9552  22.2231  23.2077
    23.7214  23.9102  24.6307  24.6332  25.0156  25.6393  25.8138  26.4980
    26.6955  27.3479  28.3447  28.3487  28.7005  28.7624  29.1665  29.2236
    29.5491  29.8228  30.1040  30.9384  31.4410  31.9597  32.3782  32.4259
    32.8560  33.5406  33.7933  33.8634

          k = 0.0000-0.5774 0.5424 (  5080 PWs)   bands (ev):

  -109.5039-109.4592-109.4496-109.4432-109.4100-109.3905 -64.9462 -64.9430
   -64.9404 -64.9370 -64.9282 -64.9266 -64.9247 -64.9208 -64.9195 -64.9164
   -64.9146 -64.9121 -64.9064 -64.9037 -64.9023 -64.9022 -64.8890 -64.8833
   -25.5059 -25.5058  -4.4322  -4.4298  -4.3801  -4.3529  -4.3527  -4.3437
    -4.3272  -4.2983  -4.2555  -4.2548  -4.2303  -4.2241  -4.2137  -4.1965
    -4.1897  -4.1747  -4.1319  -4.1312  -4.1199  -4.1015  -4.0960  -4.0911
    -4.0654  -4.0521  -4.0513  -4.0422  -4.0334  -4.0309  -3.9468  -3.9137
    -2.3445  -2.3425  -2.2085  -2.1894  -2.1628  -2.1469  10.8088  11.4563
    11.8498  12.2007  13.1657  13.7757  17.2790  17.7967  19.6902  19.9687
    20.7981  20.9429  21.4343  21.6687  21.8537  21.8597  22.5964  22.8526
    23.7167  24.5919  24.6157  24.7368  25.0943  25.6645  25.8317  26.5807
    26.8961  27.3566  27.8911  28.5208  28.9015  28.9767  29.1538  29.2572
    29.3672  29.7276  30.1788  30.3720  30.9867  31.5608  32.2778  32.4837
    32.7337  33.5251  34.0178  34.1636

          k = 0.2000 0.1155 0.0000 (  5087 PWs)   bands (ev):

  -109.5003-109.4738-109.4516-109.4286-109.4211-109.4195 -64.9614 -64.9477
   -64.9414 -64.9344 -64.9333 -64.9303 -64.9229 -64.9220 -64.9214 -64.9186
   -64.9179 -64.9173 -64.9085 -64.9060 -64.8963 -64.8920 -64.8841 -64.8831
   -25.5070 -25.5052  -4.4578  -4.4472  -4.4422  -4.4225  -4.4049  -4.3491
    -4.3328  -4.3267  -4.2994  -4.2788  -4.2716  -4.2590  -4.2536  -4.1878
    -4.1870  -4.1768  -4.1501  -4.1183  -4.1106  -4.0847  -4.0669  -4.0434
    -4.0422  -4.0171  -3.9991  -3.9899  -3.9747  -3.9454  -3.9179  -3.9095
    -2.2695  -2.2459  -2.2313  -2.2297  -2.1873  -2.1825   8.9503  11.8429
    12.4145  12.7564  14.6341  14.8589  17.2366  17.6653  19.2559  19.8491
    19.8511  19.8584  20.1721  21.3243  21.8351  22.2746  22.3255  22.3937
    24.5655  25.1721  25.5097  25.5947  25.6366  25.9028  26.0173  26.0369
    26.5998  26.6264  26.7757  27.5103  27.9399  28.5494  28.7046  28.9973
    29.2457  29.6782  30.0104  31.4142  31.8417  31.8500  31.9823  32.4123
    32.9957  33.6168  33.6238  34.2840

          k = 0.2000 0.1155 0.1808 (  5078 PWs)   bands (ev):

  -109.4798-109.4781-109.4321-109.4267-109.4163-109.4087 -64.9531 -64.9483
   -64.9440 -64.9367 -64.9271 -64.9257 -64.9245 -64.9239 -64.9174 -64.9158
   -64.9157 -64.9100 -64.9100 -64.8999 -64.8956 -64.8916 -64.8858 -64.8834
   -25.5069 -25.5053  -4.4546  -4.4422  -4.4276  -4.4193  -4.3851  -4.3637
    -4.3429  -4.3224  -4.3022  -4.2877  -4.2774  -4.2636  -4.2460  -4.2327
    -4.1542  -4.1513  -4.1290  -4.1092  -4.1086  -4.0862  -4.0663  -4.0495
    -4.0418  -4.0323  -4.0262  -3.9825  -3.9564  -3.9418  -3.9263  -3.9123
    -2.2846  -2.2540  -2.2429  -2.2231  -2.1880  -2.1815   9.0905  11.9484
    12.5149  12.5700  14.3103  14.7365  17.3279  17.8610  18.7334  19.0526
    19.6868  20.3839  20.7327  21.3562  21.4680  22.6010  23.1315  23.4049
    24.4874  24.7142  25.0981  25.3150  25.6431  25.9496  26.0005  26.2571
    26.5901  26.6884  26.7257  27.4007  27.5686  27.9841  28.8986  29.3035
    29.4457  29.8060  30.6236  31.3816  31.8253  31.9745  32.1754  32.4546
    32.7613  33.4296  33.5917  34.0503

          k = 0.2000 0.1155 0.3616 (  5067 PWs)   bands (ev):

  -109.4598-109.4548-109.4355-109.4338-109.4097-109.3783 -64.9425 -64.9411
   -64.9402 -64.9359 -64.9331 -64.9289 -64.9227 -64.9208 -64.9183 -64.9133
   -64.9111 -64.9078 -64.9029 -64.8975 -64.8970 -64.8914 -64.8867 -64.8800
   -25.5066 -25.5055  -4.4429  -4.4345  -4.4126  -4.4028  -4.3815  -4.3764
    -4.3248  -4.3185  -4.3117  -4.2884  -4.2839  -4.2734  -4.2698  -4.2268
    -4.1401  -4.1249  -4.1209  -4.1136  -4.0959  -4.0724  -4.0702  -4.0609
    -4.0546  -4.0261  -4.0240  -4.0078  -3.9426  -3.9414  -3.9404  -3.9062
    -2.3142  -2.2990  -2.2340  -2.2127  -2.1950  -2.1836   9.4997  11.8678
    12.3275  12.8029  13.8141  14.3630  17.5649  17.8442  18.4308  18.5923
    19.3800  19.8125  20.7820  22.2532  22.7473  23.4246  23.5537  24.1977
    24.2717  24.5643  24.9997  25.0575  25.4025  25.9527  26.0737  26.2992
    26.3190  26.7369  26.7696  27.1037  27.6376  27.9584  28.5867  28.9909
    29.5917  30.5001  30.6683  31.3103  31.4060  31.9938  32.1621  32.4199
    33.1785  33.3811  33.4536  33.7920

          k = 0.2000 0.1155 0.5424 (  5053 PWs)   bands (ev):

  -109.4748-109.4442-109.4381-109.4153-109.3704-109.3476 -64.9439 -64.9412
   -64.9381 -64.9374 -64.9331 -64.9302 -64.9163 -64.9145 -64.9121 -64.9080
   -64.9065 -64.9052 -64.9020 -64.8994 -64.8887 -64.8845 -64.8842 -64.8798
   -25.5062 -25.5058  -4.4307  -4.4284  -4.4031  -4.3925  -4.3913  -4.3859
    -4.3332  -4.3244  -4.2967  -4.2892  -4.2871  -4.2798  -4.2222  -4.1746
    -4.1425  -4.1318  -4.1270  -4.1228  -4.1156  -4.1080  -4.0673  -4.0646
    -4.0577  -4.0567  -3.9880  -3.9681  -3.9529  -3.9480  -3.9374  -3.9174
    -2.3369  -2.3345  -2.2206  -2.2069  -2.2011  -2.1902  10.1644  11.0060
    12.7764  13.2586  13.3148  13.8127  17.6971  17.8990  18.5392  18.6340
    18.7531  19.0721  21.6079  22.2951  22.9967  23.7151  24.1006  24.5492
    24.6370  24.6840  24.8200  25.1169  25.4162  25.5811  26.2073  26.6417
    26.9545  27.0928  27.1216  27.4086  27.4850  27.9587  28.0486  28.1683
    28.9376  29.4581  30.7397  30.9087  31.6046  32.1815  32.6036  32.6199
    32.9201  33.2126  33.6720  33.6753

          k = 0.2000 0.3079 0.0000 (  5075 PWs)   bands (ev):

  -109.5000-109.4851-109.4425-109.4263-109.3938-109.3820 -64.9565 -64.9427
   -64.9402 -64.9374 -64.9364 -64.9339 -64.9199 -64.9183 -64.9170 -64.9099
   -64.9097 -64.9085 -64.9057 -64.9038 -64.8989 -64.8917 -64.8885 -64.8804
   -25.5067 -25.5054  -4.4337  -4.4244  -4.4206  -4.4100  -4.3718  -4.3480
    -4.3295  -4.3139  -4.3033  -4.2749  -4.2651  -4.2629  -4.2287  -4.2171
    -4.1775  -4.1676  -4.1465  -4.1325  -4.1211  -4.0937  -4.0762  -4.0444
    -4.0406  -4.0379  -4.0298  -4.0268  -4.0022  -3.9537  -3.9430  -3.9158
    -2.2585  -2.2479  -2.2313  -2.2182  -2.1744  -2.1523   9.2498  11.3772
    11.8861  13.1076  14.7311  14.8085  17.6989  18.2402  19.3594  19.4346
    19.6590  19.6668  20.1610  21.4191  21.6621  22.5165  22.7776  22.8749
    24.1258  24.2932  24.9232  25.0815  25.4917  25.6651  25.9184  26.4900
    26.5424  26.6365  27.2940  27.5693  27.8624  28.1974  28.8063  29.5787
    29.8049  30.1165  30.3998  31.7317  31.8901  32.1365  32.1780  32.4537
    33.2175  33.3967  33.5314  33.6677

          k = 0.2000 0.3079 0.1808 (  5088 PWs)   bands (ev):

  -109.5138-109.4859-109.4687-109.4276-109.4089-109.4014 -64.9536 -64.9454
   -64.9437 -64.9369 -64.9353 -64.9327 -64.9290 -64.9215 -64.9191 -64.9164
   -64.9133 -64.9114 -64.9082 -64.9039 -64.9011 -64.8965 -64.8890 -64.8831
   -25.5066 -25.5054  -4.4357  -4.4241  -4.4061  -4.3946  -4.3793  -4.3505
    -4.3397  -4.3177  -4.3058  -4.2874  -4.2643  -4.2458  -4.2258  -4.2203
    -4.1736  -4.1589  -4.1310  -4.1275  -4.1265  -4.0975  -4.0737  -4.0701
    -4.0510  -4.0346  -4.0342  -4.0093  -3.9997  -3.9508  -3.9388  -3.9328
    -2.2804  -2.2574  -2.2421  -2.2090  -2.1715  -2.1570   9.3877  11.4884
    11.9555  12.9794  14.2611  14.6297  18.1843  18.2649  18.5629  18.9525
    19.8877  20.1324  21.0287  21.2174  21.6939  21.9477  23.3769  23.4974
    23.9746  24.2085  24.7051  24.7798  25.6128  25.9389  26.1310  26.1937
    26.4862  26.8239  27.2007  27.7055  27.8668  27.9699  28.8026  29.4604
    29.5169  30.5071  30.8006  31.7164  31.7871  32.1782  32.2454  32.5280
    32.8767  33.0990  33.3800  33.8460

          k = 0.2000 0.3079 0.3616 (  5068 PWs)   bands (ev):

  -109.4745-109.4583-109.4438-109.4322-109.3972-109.3793 -64.9458 -64.9409
   -64.9394 -64.9326 -64.9294 -64.9288 -64.9221 -64.9209 -64.9142 -64.9120
   -64.9105 -64.9090 -64.9025 -64.9001 -64.8994 -64.8957 -64.8886 -64.8823
   -25.5064 -25.5055  -4.4314  -4.4256  -4.3910  -4.3849  -4.3666  -4.3574
    -4.3236  -4.3176  -4.3162  -4.2779  -4.2652  -4.2498  -4.2298  -4.2185
    -4.1613  -4.1456  -4.1326  -4.1228  -4.1140  -4.0934  -4.0787  -4.0744
    -4.0634  -4.0385  -4.0127  -4.0087  -4.0029  -3.9734  -3.9466  -3.9227
    -2.3157  -2.3042  -2.2276  -2.1971  -2.1696  -2.1655   9.7837  11.8196
    11.9698  12.6447  13.6189  14.2190  17.8541  18.1294  18.8106  18.9597
    19.8410  20.1814  21.1267  21.2469  22.6044  22.8194  23.1591  23.5737
    24.0492  24.2952  24.7141  24.8597  25.5767  25.6315  25.9372  26.3958
    26.9498  27.0235  27.2009  27.5158  27.8833  28.2407  28.6974  29.0796
    29.4939  30.4654  30.9981  31.3972  31.6616  31.8639  32.3361  32.3642
    33.0200  33.0636  33.2433  33.8437

          k = 0.2000 0.3079 0.5424 (  5058 PWs)   bands (ev):

  -109.4656-109.4617-109.4130-109.4089-109.3923-109.3798 -64.9491 -64.9402
   -64.9376 -64.9346 -64.9275 -64.9242 -64.9205 -64.9159 -64.9108 -64.9093
   -64.9073 -64.9035 -64.9013 -64.9008 -64.8953 -64.8938 -64.8888 -64.8817
   -25.5061 -25.5058  -4.4274  -4.4265  -4.3791  -4.3786  -4.3677  -4.3663
    -4.3281  -4.3097  -4.2912  -4.2847  -4.2538  -4.2422  -4.2327  -4.1780
    -4.1638  -4.1558  -4.1506  -4.1311  -4.1119  -4.0988  -4.0793  -4.0641
    -4.0615  -4.0571  -4.0270  -4.0134  -3.9735  -3.9679  -3.9501  -3.9303
    -2.3423  -2.3393  -2.2105  -2.1958  -2.1742  -2.1707  10.4262  11.2455
    12.3145  12.7122  13.2750  13.6572  17.8969  18.2761  18.4595  18.7463
    19.7440  19.9360  21.7084  21.9804  22.5331  22.6544  23.7232  24.0347
    24.1720  24.3061  24.7055  24.7351  25.4637  25.5317  26.2577  26.6666
    26.9596  27.0900  27.4835  27.6026  27.9954  28.1958  28.5796  28.7101
    28.9730  30.1098  31.0397  31.1637  31.3395  31.9136  32.4060  32.5867
    32.7213  33.0388  33.4931  33.5442

          k = 0.2000 0.5004 0.0000 (  5072 PWs)   bands (ev):

  -109.4853-109.4737-109.4618-109.4123-109.3969-109.3853 -64.9510 -64.9403
   -64.9354 -64.9330 -64.9305 -64.9250 -64.9239 -64.9202 -64.9179 -64.9177
   -64.9139 -64.9047 -64.9046 -64.9022 -64.8986 -64.8953 -64.8906 -64.8827
   -25.5063 -25.5057  -4.4283  -4.4181  -4.3731  -4.3615  -4.3440  -4.3296
    -4.3282  -4.3091  -4.3089  -4.2931  -4.2753  -4.2720  -4.2451  -4.2225
    -4.1565  -4.1475  -4.1369  -4.1325  -4.1240  -4.0991  -4.0917  -4.0715
    -4.0675  -4.0571  -4.0388  -4.0309  -4.0127  -4.0107  -3.9530  -3.9205
    -2.2476  -2.2467  -2.2361  -2.2012  -2.1694  -2.1289   9.6946  10.8175
    11.4980  13.4786  14.5400  14.9138  17.7288  18.8677  19.4917  19.5258
    19.5307  19.6085  20.5059  20.7898  21.9764  22.3945  23.3052  23.3089
    23.5907  23.7995  24.3619  24.5035  25.0943  25.3725  25.9113  26.3957
    26.4971  27.0993  27.3616  27.6284  27.9294  28.4957  28.7613  30.3192
    30.4990  30.7380  31.1496  31.7212  31.8764  32.2768  32.3289  32.4624
    32.7601  32.9250  33.2310  33.3947

          k = 0.2000 0.5004 0.1808 (  5079 PWs)   bands (ev):

  -109.4879-109.4826-109.4714-109.4303-109.3990-109.3865 -64.9519 -64.9432
   -64.9387 -64.9343 -64.9316 -64.9283 -64.9269 -64.9246 -64.9194 -64.9140
   -64.9116 -64.9087 -64.9049 -64.9014 -64.8999 -64.8969 -64.8936 -64.8814
   -25.5062 -25.5057  -4.4196  -4.4099  -4.3880  -4.3662  -4.3540  -4.3405
    -4.3271  -4.3209  -4.3114  -4.2698  -4.2527  -4.2457  -4.2193  -4.2141
    -4.1752  -4.1583  -4.1553  -4.1449  -4.1179  -4.0993  -4.0915  -4.0790
    -4.0732  -4.0518  -4.0323  -4.0260  -4.0175  -3.9996  -3.9450  -3.9430
    -2.2718  -2.2613  -2.2402  -2.1898  -2.1651  -2.1340   9.8210  10.9389
    11.5995  13.4022  14.0551  14.5504  18.2846  18.5868  18.8976  19.4314
    19.6462  20.3450  20.8567  21.4857  21.7984  22.1799  22.5116  22.8787
    23.7314  24.2333  24.4424  24.4767  25.3986  25.6319  25.8796  26.0459
    26.8919  27.1568  27.4762  27.6710  28.3070  28.6335  28.7273  29.7218
    30.0418  30.6845  30.8524  31.6075  31.8982  32.1558  32.3918  32.6492
    32.7705  32.9451  33.3961  33.8229

          k = 0.2000 0.5004 0.3616 (  5085 PWs)   bands (ev):

  -109.4926-109.4881-109.4732-109.4344-109.4193-109.3852 -64.9478 -64.9468
   -64.9430 -64.9335 -64.9331 -64.9309 -64.9279 -64.9206 -64.9179 -64.9143
   -64.9129 -64.9105 -64.9089 -64.9062 -64.8993 -64.8978 -64.8939 -64.8853
   -25.5061 -25.5057  -4.4216  -4.4136  -4.3842  -4.3556  -4.3498  -4.3366
    -4.3342  -4.3246  -4.3077  -4.2472  -4.2382  -4.2194  -4.2162  -4.1873
    -4.1811  -4.1738  -4.1667  -4.1474  -4.1239  -4.1049  -4.0903  -4.0825
    -4.0712  -4.0565  -4.0318  -4.0171  -4.0085  -4.0044  -3.9835  -3.9325
    -2.3155  -2.3095  -2.2231  -2.1765  -2.1627  -2.1456  10.1999  11.2817
    11.8559  12.7917  13.3504  14.0640  17.7890  18.6465  19.1438  19.6422
    20.1437  20.5921  21.2810  21.4799  21.6398  22.2576  22.8136  23.0269
    23.4067  24.0316  24.3982  24.8107  25.3174  25.4267  26.0982  26.6340
    26.8863  27.5466  27.8028  27.9758  28.2299  28.6177  29.1377  29.2685
    29.5171  30.2714  30.3615  31.1622  31.4788  32.0443  32.3860  32.7127
    32.9122  33.2809  33.5441  33.9699

          k = 0.2000 0.5004 0.5424 (  5080 PWs)   bands (ev):

  -109.4892-109.4742-109.4411-109.4290-109.4222-109.3983 -64.9487 -64.9418
   -64.9364 -64.9346 -64.9278 -64.9274 -64.9244 -64.9222 -64.9186 -64.9114
   -64.9105 -64.9085 -64.9064 -64.9052 -64.9027 -64.8998 -64.8951 -64.8922
   -25.5059 -25.5058  -4.4235  -4.4229  -4.3686  -4.3505  -4.3491  -4.3451
    -4.3299  -4.2975  -4.2834  -4.2620  -4.2558  -4.2138  -4.1988  -4.1944
    -4.1834  -4.1627  -4.1543  -4.1434  -4.1031  -4.1028  -4.0912  -4.0773
    -4.0766  -4.0672  -4.0645  -4.0444  -4.0083  -3.9987  -3.9593  -3.9370
    -2.3460  -2.3441  -2.2013  -2.1801  -2.1617  -2.1542  10.8215  11.5771
    11.8535  12.1607  13.1317  13.4786  17.9140  18.4890  18.9522  19.4932
    20.0821  20.5337  21.5848  21.8069  22.4215  22.5784  22.9054  23.2899
    23.3181  24.0192  24.2250  24.7996  25.3192  25.6558  26.3441  26.4086
    27.0227  27.1894  27.7386  27.7883  28.2712  28.6570  29.0370  29.3930
    29.6226  30.3903  30.6766  30.9039  31.5422  31.5929  32.2494  32.4068
    32.8161  33.1444  33.6373  33.8121

          k = 0.2000-0.4619 0.0000 (  5078 PWs)   bands (ev):

  -109.4916-109.4822-109.4570-109.4283-109.4051-109.3860 -64.9554 -64.9419
   -64.9386 -64.9341 -64.9298 -64.9256 -64.9239 -64.9220 -64.9192 -64.9160
   -64.9115 -64.9068 -64.9062 -64.9024 -64.8998 -64.8967 -64.8933 -64.8838
   -25.5064 -25.5056  -4.4268  -4.4199  -4.3857  -4.3725  -4.3454  -4.3297
    -4.3279  -4.3124  -4.2993  -4.2988  -4.2716  -4.2678  -4.2389  -4.2290
    -4.1540  -4.1413  -4.1394  -4.1377  -4.1289  -4.0991  -4.0954  -4.0665
    -4.0625  -4.0554  -4.0390  -4.0339  -4.0102  -3.9969  -3.9529  -3.9203
    -2.2498  -2.2471  -2.2353  -2.2037  -2.1698  -2.1319   9.6134  10.9168
    11.5341  13.4259  14.5796  14.8904  17.7247  18.8954  19.3987  19.4999
    19.5411  19.5474  20.4764  20.8237  21.9226  22.6247  23.2315  23.4369
    23.4460  23.6357  24.5072  24.5404  25.1433  25.6019  25.9437  26.3295
    26.5043  27.1099  27.1956  27.7016  27.9040  28.4012  28.8180  30.1043
    30.3942  30.6739  31.0220  31.6415  32.0588  32.3051  32.3702  32.5858
    32.7494  32.8893  33.2676  33.3248

          k = 0.2000-0.4619 0.1808 (  5075 PWs)   bands (ev):

  -109.4932-109.4745-109.4617-109.4217-109.3958-109.3847 -64.9512 -64.9431
   -64.9383 -64.9333 -64.9314 -64.9271 -64.9267 -64.9228 -64.9166 -64.9141
   -64.9109 -64.9076 -64.9038 -64.9003 -64.8997 -64.8964 -64.8926 -64.8817
   -25.5063 -25.5056  -4.4216  -4.4087  -4.3931  -4.3720  -4.3587  -4.3402
    -4.3254  -4.3200  -4.3132  -4.2701  -4.2570  -4.2451  -4.2187  -4.2106
    -4.1798  -4.1543  -4.1488  -4.1440  -4.1204  -4.0985  -4.0948  -4.0772
    -4.0700  -4.0469  -4.0324  -4.0282  -4.0131  -3.9879  -3.9445  -3.9420
    -2.2733  -2.2602  -2.2403  -2.1925  -2.1649  -2.1366   9.7438  11.0380
    11.6346  13.3301  14.1163  14.5490  18.3163  18.5475  18.7886  19.4339
    19.6814  20.1985  20.8787  21.4265  21.7802  22.3903  22.4475  23.0142
    23.7637  24.2155  24.4268  24.4935  25.4988  25.7248  25.9214  26.0646
    26.7553  27.1258  27.5065  27.5567  28.4014  28.5274  28.6383  29.6245
    29.9128  30.8111  30.9030  31.6062  31.9191  32.1685  32.3453  32.5570
    32.7495  32.9805  33.4250  33.8782

          k = 0.2000-0.4619 0.3616 (  5078 PWs)   bands (ev):

  -109.4893-109.4860-109.4663-109.4248-109.4067-109.3771 -64.9480 -64.9460
   -64.9418 -64.9341 -64.9313 -64.9303 -64.9263 -64.9177 -64.9175 -64.9144
   -64.9116 -64.9085 -64.9070 -64.9031 -64.8982 -64.8978 -64.8921 -64.8826
   -25.5061 -25.5057  -4.4228  -4.4146  -4.3846  -4.3599  -4.3535  -4.3379
    -4.3346  -4.3223  -4.3087  -4.2528  -4.2443  -4.2220  -4.2193  -4.1831
    -4.1815  -4.1716  -4.1647  -4.1399  -4.1212  -4.1013  -4.0948  -4.0782
    -4.0717  -4.0497  -4.0339  -4.0144  -4.0071  -4.0002  -3.9765  -3.9321
    -2.3158  -2.3082  -2.2234  -2.1800  -2.1624  -2.1478  10.1263  11.3791
    11.8731  12.7420  13.4131  14.0779  17.8139  18.5074  19.1187  19.7153
    19.9649  20.5254  21.1345  21.4528  21.8789  22.3700  22.7586  23.1686
    23.5386  24.0054  24.5171  24.7854  25.3438  25.4469  26.0982  26.6862
    26.8498  27.3772  27.7045  27.9397  28.1534  28.6842  29.0213  29.1755
    29.4788  30.3217  30.5772  31.2492  31.5216  32.0164  32.2878  32.6142
    32.9897  33.2113  33.4450  33.9985

          k = 0.2000-0.4619 0.5424 (  5069 PWs)   bands (ev):

  -109.4808-109.4674-109.4270-109.4155-109.4098-109.3863 -64.9470 -64.9417
   -64.9348 -64.9344 -64.9272 -64.9260 -64.9200 -64.9182 -64.9129 -64.9099
   -64.9089 -64.9071 -64.9056 -64.9024 -64.9011 -64.8987 -64.8924 -64.8891
   -25.5059 -25.5058  -4.4236  -4.4230  -4.3693  -4.3545  -4.3515  -4.3482
    -4.3289  -4.2961  -4.2887  -4.2664  -4.2535  -4.2121  -4.1982  -4.1943
    -4.1893  -4.1621  -4.1552  -4.1415  -4.1012  -4.1010  -4.0915  -4.0742
    -4.0703  -4.0640  -4.0610  -4.0446  -4.0016  -3.9910  -3.9589  -3.9366
    -2.3452  -2.3432  -2.2025  -2.1821  -2.1620  -2.1559  10.7493  11.5315
    11.9086  12.2618  13.1574  13.5002  17.9312  18.4983  18.7741  19.3013
    20.2125  20.6045  21.3722  21.7407  22.4437  22.5492  23.1638  23.3801
    23.4852  24.0557  24.2732  24.7829  25.3409  25.6310  26.3424  26.4416
    27.0247  27.2013  27.7003  27.7504  28.1593  28.5623  29.0628  29.3274
    29.4306  30.4201  30.7666  31.0392  31.4883  31.5372  32.3147  32.4768
    32.7956  33.0547  33.5824  33.6779

          k = 0.2000-0.2694 0.0000 (  5077 PWs)   bands (ev):

  -109.4951-109.4889-109.4401-109.4261-109.4064-109.3867 -64.9568 -64.9431
   -64.9402 -64.9391 -64.9341 -64.9313 -64.9235 -64.9200 -64.9177 -64.9147
   -64.9115 -64.9101 -64.9039 -64.9019 -64.8991 -64.8898 -64.8887 -64.8811
   -25.5068 -25.5053  -4.4399  -4.4288  -4.4248  -4.4116  -4.3847  -4.3479
    -4.3296  -4.3178  -4.3014  -4.2742  -4.2655  -4.2573  -4.2374  -4.2099
    -4.1817  -4.1743  -4.1473  -4.1279  -4.1183  -4.0931  -4.0735  -4.0439
    -4.0402  -4.0336  -4.0212  -4.0150  -4.0009  -3.9531  -3.9340  -3.9142
    -2.2608  -2.2478  -2.2304  -2.2225  -2.1761  -2.1594   9.1734  11.4770
    12.0139  13.0169  14.6993  14.8446  17.6913  17.9876  19.3633  19.5452
    19.6981  19.7053  20.0795  21.5371  21.6703  22.3632  22.6553  22.7439
    24.3142  24.6001  25.0504  25.2089  25.4847  25.6033  25.9201  26.4968
    26.5526  26.5849  27.2512  27.5217  27.8096  28.3461  28.7377  29.5133
    29.5970  30.0086  30.2850  31.7523  31.7778  32.0868  32.0883  32.4163
    33.2218  33.5099  33.6268  33.7956

          k = 0.2000-0.2694 0.1808 (  5087 PWs)   bands (ev):

  -109.5091-109.4874-109.4644-109.4246-109.4091-109.4063 -64.9527 -64.9470
   -64.9456 -64.9378 -64.9351 -64.9317 -64.9272 -64.9224 -64.9190 -64.9180
   -64.9144 -64.9113 -64.9089 -64.9037 -64.9015 -64.8935 -64.8868 -64.8817
   -25.5067 -25.5054  -4.4402  -4.4292  -4.4103  -4.3940  -4.3873  -4.3564
    -4.3397  -4.3180  -4.3023  -4.2917  -4.2633  -4.2460  -4.2373  -4.2230
    -4.1688  -4.1584  -4.1322  -4.1229  -4.1191  -4.0976  -4.0706  -4.0660
    -4.0465  -4.0347  -4.0341  -3.9975  -3.9963  -3.9484  -3.9363  -3.9264
    -2.2817  -2.2566  -2.2422  -2.2127  -2.1748  -2.1623   9.3085  11.5886
    12.0781  12.8905  14.2618  14.6749  17.9865  18.1842  18.5930  18.9397
    19.8358  20.2269  20.9682  21.2565  21.5628  22.0766  23.3272  23.5564
    24.1072  24.3679  24.8072  24.9130  25.4492  25.9626  26.1607  26.2596
    26.5750  26.6739  27.2329  27.5450  27.7297  27.9469  28.8637  29.4031
    29.4962  30.3350  30.7578  31.6631  31.7613  32.1136  32.2306  32.5297
    32.9235  33.1673  33.4602  33.8328

          k = 0.2000-0.2694 0.3616 (  5068 PWs)   bands (ev):

  -109.4706-109.4632-109.4482-109.4290-109.4005-109.3726 -64.9449 -64.9416
   -64.9390 -64.9335 -64.9308 -64.9300 -64.9219 -64.9196 -64.9155 -64.9126
   -64.9109 -64.9078 -64.9017 -64.9005 -64.8982 -64.8956 -64.8891 -64.8813
   -25.5064 -25.5055  -4.4345  -4.4280  -4.3935  -4.3906  -4.3690  -4.3631
    -4.3211  -4.3178  -4.3176  -4.2826  -4.2692  -4.2551  -4.2399  -4.2221
    -4.1561  -4.1396  -4.1261  -4.1223  -4.1093  -4.0893  -4.0754  -4.0724
    -4.0611  -4.0379  -4.0147  -4.0079  -3.9904  -3.9665  -3.9437  -3.9175
    -2.3152  -2.3029  -2.2296  -2.2011  -2.1760  -2.1687   9.7096  11.8809
    12.0195  12.6691  13.6466  14.2672  17.8037  18.0978  18.6631  18.8659
    19.7126  20.0901  21.0311  21.4617  22.6159  22.9735  23.4198  23.5909
    24.1141  24.4175  24.7624  24.9123  25.4986  25.7235  25.9318  26.3381
    26.7939  27.0739  27.1783  27.4234  27.7460  28.0941  28.6298  29.1204
    29.5056  30.4845  30.9410  31.3830  31.5811  31.8715  32.3328  32.4625
    33.0330  33.0790  33.3328  33.7534

          k = 0.2000-0.2694 0.5424 (  5058 PWs)   bands (ev):

  -109.4601-109.4430-109.4228-109.4103-109.4053-109.3800 -64.9457 -64.9403
   -64.9380 -64.9361 -64.9284 -64.9258 -64.9194 -64.9131 -64.9123 -64.9085
   -64.9076 -64.9041 -64.9037 -64.8998 -64.8941 -64.8931 -64.8885 -64.8835
   -25.5061 -25.5058  -4.4289  -4.4273  -4.3846  -4.3824  -4.3721  -4.3706
    -4.3286  -4.3141  -4.2918  -4.2865  -4.2634  -4.2489  -4.2329  -4.1771
    -4.1561  -4.1538  -4.1449  -4.1287  -4.1141  -4.1007  -4.0762  -4.0646
    -4.0602  -4.0561  -4.0185  -3.9996  -3.9715  -3.9619  -3.9475  -3.9266
    -2.3417  -2.3384  -2.2130  -2.1989  -2.1793  -2.1747  10.3562  11.1810
    12.4169  12.8329  13.2957  13.7053  17.8300  18.1981  18.4409  18.7396
    19.5018  19.7047  21.8897  21.9375  22.6407  22.8024  23.8165  24.1775
    24.2751  24.4050  24.7264  24.8430  25.4542  25.5539  26.2146  26.7081
    26.9143  27.1434  27.3791  27.6122  27.9094  28.1312  28.4134  28.5695
    28.9075  29.9749  30.9379  31.0782  31.4479  32.0435  32.4467  32.5411
    32.7544  33.1522  33.5196  33.5707

          k = 0.2000-0.0770 0.0000 (  5083 PWs)   bands (ev):

  -109.4992-109.4803-109.4406-109.4345-109.4153-109.4015 -64.9616 -64.9488
   -64.9425 -64.9328 -64.9307 -64.9252 -64.9235 -64.9225 -64.9220 -64.9189
   -64.9172 -64.9157 -64.9083 -64.9017 -64.8953 -64.8932 -64.8842 -64.8821
   -25.5071 -25.5052  -4.4600  -4.4498  -4.4447  -4.4265  -4.4032  -4.3482
    -4.3341  -4.3248  -4.3037  -4.2819  -4.2697  -4.2572  -4.2550  -4.1872
    -4.1860  -4.1744  -4.1507  -4.1164  -4.1103  -4.0820  -4.0669  -4.0435
    -4.0427  -4.0147  -3.9988  -3.9856  -3.9708  -3.9409  -3.9174  -3.9096
    -2.2703  -2.2456  -2.2323  -2.2296  -2.1896  -2.1843   8.9245  11.9241
    12.3967  12.7818  14.6447  14.8236  17.1386  17.6615  19.2126  19.8738
    19.8764  19.9362  20.1926  21.3157  21.7923  22.2220  22.2625  22.4416
    24.6134  25.2666  25.5123  25.5435  25.6489  25.9054  26.0616  26.0824
    26.6247  26.6547  26.7669  27.4789  27.9692  28.5365  28.6067  29.0606
    29.1711  29.6158  29.9819  31.3891  31.8117  31.8283  32.0050  32.4529
    32.9458  33.5195  33.6305  34.3661

          k = 0.2000-0.0770 0.1808 (  5080 PWs)   bands (ev):

  -109.4867-109.4834-109.4393-109.4200-109.4173-109.4073 -64.9533 -64.9490
   -64.9455 -64.9358 -64.9307 -64.9275 -64.9245 -64.9236 -64.9181 -64.9168
   -64.9151 -64.9114 -64.9098 -64.8983 -64.8960 -64.8933 -64.8859 -64.8808
   -25.5069 -25.5053  -4.4560  -4.4448  -4.4304  -4.4234  -4.3841  -4.3629
    -4.3453  -4.3210  -4.3060  -4.2874  -4.2801  -4.2657  -4.2458  -4.2344
    -4.1527  -4.1503  -4.1265  -4.1108  -4.1067  -4.0832  -4.0651  -4.0478
    -4.0423  -4.0316  -4.0252  -3.9800  -3.9533  -3.9363  -3.9249  -3.9132
    -2.2852  -2.2536  -2.2421  -2.2254  -2.1907  -2.1844   9.0639  12.0292
    12.4597  12.6145  14.3488  14.7032  17.2430  17.8029  18.7811  19.0481
    19.6787  20.3670  20.7069  21.3904  21.4924  22.6600  23.1008  23.3593
    24.5501  24.7465  25.1996  25.3509  25.6319  25.8150  26.0659  26.3038
    26.5644  26.6414  26.7136  27.3714  27.5842  28.0388  28.8240  29.3139
    29.4374  29.7411  30.6039  31.3607  31.8414  31.9469  32.2034  32.4238
    32.7049  33.4454  33.5324  34.1329

          k = 0.2000-0.0770 0.3616 (  5063 PWs)   bands (ev):

  -109.4603-109.4521-109.4355-109.4251-109.3995-109.3750 -64.9417 -64.9412
   -64.9379 -64.9370 -64.9324 -64.9293 -64.9217 -64.9201 -64.9178 -64.9125
   -64.9102 -64.9067 -64.9028 -64.8979 -64.8951 -64.8903 -64.8849 -64.8787
   -25.5066 -25.5055  -4.4432  -4.4362  -4.4162  -4.4043  -4.3832  -4.3788
    -4.3254  -4.3173  -4.3106  -4.2908  -4.2845  -4.2755  -4.2726  -4.2270
    -4.1374  -4.1242  -4.1192  -4.1126  -4.0945  -4.0712  -4.0671  -4.0584
    -4.0543  -4.0273  -4.0209  -4.0086  -3.9408  -3.9391  -3.9311  -3.9073
    -2.3135  -2.2985  -2.2335  -2.2150  -2.1963  -2.1875   9.4723  11.8576
    12.3888  12.8063  13.8801  14.3462  17.5156  17.8169  18.3751  18.5669
    19.3863  19.7475  20.7570  22.3556  22.8420  23.3912  23.5892  24.2066
    24.2695  24.6737  25.0377  25.1463  25.4296  25.9406  26.0358  26.2169
    26.3486  26.6439  26.6791  27.0545  27.7079  27.9564  28.4851  29.0702
    29.5597  30.5087  30.6350  31.2638  31.4737  31.9466  32.1743  32.3837
    33.1872  33.3875  33.4282  33.7660

          k = 0.2000-0.0770 0.5424 (  5055 PWs)   bands (ev):

  -109.4704-109.4430-109.4379-109.4251-109.3745-109.3513 -64.9438 -64.9414
   -64.9392 -64.9377 -64.9330 -64.9325 -64.9171 -64.9133 -64.9101 -64.9088
   -64.9077 -64.9064 -64.9036 -64.8990 -64.8887 -64.8863 -64.8839 -64.8793
   -25.5062 -25.5058  -4.4306  -4.4282  -4.4067  -4.3945  -4.3927  -4.3889
    -4.3341  -4.3254  -4.2980  -4.2926  -4.2886  -4.2818  -4.2212  -4.1741
    -4.1396  -4.1310  -4.1250  -4.1221  -4.1155  -4.1074  -4.0670  -4.0644
    -4.0583  -4.0568  -3.9855  -3.9656  -3.9513  -3.9413  -3.9345  -3.9179
    -2.3370  -2.3336  -2.2214  -2.2085  -2.2032  -2.1941  10.1380  10.9823
    12.8427  13.2425  13.3950  13.8122  17.7190  17.8690  18.4344  18.5607
    18.7499  19.0286  21.5676  22.2747  23.1293  23.8242  24.1758  24.6070
    24.6499  24.7248  24.8750  25.1405  25.4402  25.5729  26.2309  26.5756
    26.8943  26.9741  27.1613  27.3845  27.4597  27.8466  28.0360  28.2249
    28.8611  29.4382  30.7613  30.9088  31.6016  32.1334  32.5563  32.6584
    33.0028  33.1827  33.6115  33.6710

          k = 0.4000 0.2309 0.0000 (  5085 PWs)   bands (ev):

  -109.4921-109.4899-109.4687-109.4411-109.4021-109.3966 -64.9589 -64.9424
   -64.9422 -64.9375 -64.9273 -64.9244 -64.9242 -64.9198 -64.9195 -64.9178
   -64.9152 -64.9077 -64.9067 -64.9033 -64.9016 -64.9005 -64.8959 -64.8856
   -25.5065 -25.5055  -4.4464  -4.4215  -4.3889  -4.3722  -4.3520  -4.3392
    -4.3360  -4.3206  -4.3132  -4.2904  -4.2778  -4.2405  -4.2374  -4.1841
    -4.1734  -4.1612  -4.1452  -4.1291  -4.1128  -4.1022  -4.0887  -4.0624
    -4.0607  -4.0600  -4.0398  -4.0339  -4.0200  -4.0062  -3.9201  -3.9154
    -2.2536  -2.2486  -2.2347  -2.2150  -2.1615  -2.1417   9.4953  10.8152
    12.3146  12.7059  14.5871  15.2110  17.7163  18.5179  18.9481  19.5784
    19.5831  19.7319  20.1506  21.3807  22.3364  22.8507  22.9948  23.1708
    23.3579  24.2697  24.6271  24.7173  24.9647  25.3528  25.3605  25.7872
    26.2329  27.2723  27.4151  28.0935  28.5898  28.6346  29.4329  29.5477
    29.8188  30.6064  30.7663  31.4939  31.6826  31.8184  32.1147  32.4797
    32.9001  33.0511  33.3684  33.9538

          k = 0.4000 0.2309 0.1808 (  5088 PWs)   bands (ev):

  -109.4913-109.4725-109.4715-109.4476-109.4144-109.4095 -64.9545 -64.9455
   -64.9418 -64.9305 -64.9286 -64.9281 -64.9230 -64.9204 -64.9193 -64.9156
   -64.9122 -64.9117 -64.9106 -64.9072 -64.9015 -64.9013 -64.9001 -64.8870
   -25.5064 -25.5055  -4.4442  -4.4035  -4.4013  -4.3794  -4.3524  -4.3472
    -4.3301  -4.3270  -4.3136  -4.2714  -4.2577  -4.2515  -4.2218  -4.1911
    -4.1767  -4.1578  -4.1438  -4.1320  -4.1083  -4.1030  -4.0947  -4.0902
    -4.0650  -4.0377  -4.0318  -4.0232  -4.0225  -4.0057  -3.9425  -3.9088
    -2.2760  -2.2591  -2.2439  -2.2008  -2.1654  -2.1404   9.6240  10.9364
    12.4129  12.6708  13.9699  15.0005  17.9585  18.2384  19.0358  19.2135
    20.0455  20.1295  20.3601  21.8779  22.0133  22.2869  22.6809  23.5257
    23.5749  23.9658  24.6835  24.8079  25.0636  25.4035  25.8308  25.9527
    26.1386  27.3149  27.7690  27.7838  28.4663  28.9062  28.9365  29.5481
    29.7359  30.6439  30.7124  31.3145  31.4682  32.1969  32.3114  32.4658
    32.5576  33.0489  33.8318  34.0940

          k = 0.4000 0.2309 0.3616 (  5084 PWs)   bands (ev):

  -109.4932-109.4705-109.4698-109.4344-109.4307-109.3814 -64.9502 -64.9492
   -64.9411 -64.9347 -64.9343 -64.9292 -64.9231 -64.9218 -64.9186 -64.9140
   -64.9112 -64.9094 -64.9080 -64.9062 -64.9019 -64.8988 -64.8905 -64.8852
   -25.5062 -25.5056  -4.4370  -4.4213  -4.3900  -4.3646  -4.3468  -4.3401
    -4.3328  -4.3262  -4.3081  -4.2533  -4.2499  -4.2326  -4.2187  -4.2147
    -4.1806  -4.1390  -4.1304  -4.1299  -4.1256  -4.1147  -4.1084  -4.0742
    -4.0617  -4.0358  -4.0333  -4.0182  -4.0097  -4.0023  -3.9865  -3.9035
    -2.3161  -2.3055  -2.2304  -2.1826  -2.1756  -2.1436  10.0160  11.2806
    12.3678  12.7029  13.0420  14.4487  17.3434  18.3323  19.1220  20.0208
    20.0871  20.1898  21.1337  21.4604  21.9437  22.6290  22.7169  23.3558
    23.7437  24.0121  24.6340  24.7012  25.0382  25.7035  25.8123  26.4465
    26.7900  27.3231  28.0704  28.1416  28.2570  28.6471  28.9108  29.0531
    29.5932  30.1447  30.4422  30.9780  31.6800  31.9771  32.1481  32.3485
    32.9245  33.6094  33.7586  33.7839

          k = 0.4000 0.2309 0.5424 (  5068 PWs)   bands (ev):

  -109.4772-109.4511-109.4484-109.4326-109.4086-109.3630 -64.9456 -64.9421
   -64.9373 -64.9358 -64.9269 -64.9243 -64.9230 -64.9172 -64.9171 -64.9155
   -64.9097 -64.9045 -64.9028 -64.9017 -64.9016 -64.9010 -64.8861 -64.8833
   -25.5060 -25.5058  -4.4314  -4.4294  -4.3802  -4.3606  -4.3569  -4.3509
    -4.3271  -4.3019  -4.2687  -4.2526  -4.2457  -4.2370  -4.2276  -4.1926
    -4.1767  -4.1641  -4.1342  -4.1313  -4.1153  -4.1127  -4.0869  -4.0793
    -4.0577  -4.0553  -4.0371  -4.0281  -4.0190  -4.0170  -3.9461  -3.9144
    -2.3432  -2.3411  -2.2107  -2.1915  -2.1666  -2.1528  10.6466  11.4171
    11.9272  12.4481  13.1780  13.7853  17.3451  17.8410  19.3957  19.8695
    20.1399  20.3378  21.5589  22.0579  22.1200  22.2789  22.7266  23.2866
    23.7995  24.5897  24.6186  24.8036  25.1317  25.6517  25.8891  26.6278
    26.9424  27.3586  27.7687  28.2724  28.6159  28.6440  28.9293  29.0185
    29.2539  29.8404  30.4561  30.5717  31.2044  31.6857  32.3205  32.5483
    32.5587  33.4794  33.9817  34.0299

          k = 0.4000 0.4234 0.0000 (  5078 PWs)   bands (ev):

  -109.4954-109.4755-109.4628-109.4248-109.4045-109.3901 -64.9510 -64.9409
   -64.9360 -64.9342 -64.9327 -64.9243 -64.9228 -64.9216 -64.9189 -64.9178
   -64.9176 -64.9074 -64.9037 -64.9008 -64.8988 -64.8972 -64.8952 -64.8866
   -25.5062 -25.5057  -4.4282  -4.4241  -4.3551  -4.3547  -4.3415  -4.3341
    -4.3323  -4.3210  -4.3097  -4.2895  -4.2842  -4.2629  -4.2558  -4.2030
    -4.1570  -4.1482  -4.1339  -4.1330  -4.1263  -4.0987  -4.0828  -4.0738
    -4.0735  -4.0668  -4.0406  -4.0314  -4.0286  -4.0138  -3.9429  -3.9215
    -2.2477  -2.2474  -2.2370  -2.2027  -2.1666  -2.1284   9.7421  10.6790
    11.6211  13.3686  14.5483  14.9966  17.7302  18.7890  19.4588  19.5208
    19.5250  19.5846  20.6669  20.7794  22.0927  22.4459  23.1068  23.2939
    23.7612  24.0299  24.2102  24.4142  25.1019  25.1191  25.6671  26.3986
    26.5974  26.7595  27.7010  27.7615  27.8693  28.7461  28.9014  30.4061
    30.5729  30.7176  31.0620  31.6458  31.9672  31.9759  32.2309  32.3162
    32.7758  32.9496  33.2363  33.6311

          k = 0.4000 0.4234 0.1808 (  5071 PWs)   bands (ev):

  -109.4735-109.4727-109.4549-109.4273-109.3918-109.3898 -64.9492 -64.9418
   -64.9373 -64.9323 -64.9310 -64.9257 -64.9232 -64.9206 -64.9172 -64.9112
   -64.9109 -64.9072 -64.9046 -64.9021 -64.8992 -64.8964 -64.8912 -64.8845
   -25.5062 -25.5057  -4.4246  -4.4099  -4.3859  -4.3632  -4.3431  -4.3396
    -4.3297  -4.3240  -4.3086  -4.2725  -4.2562  -4.2407  -4.2236  -4.2055
    -4.1671  -4.1562  -4.1547  -4.1522  -4.1130  -4.1021  -4.0857  -4.0822
    -4.0793  -4.0530  -4.0319  -4.0280  -4.0188  -4.0144  -3.9444  -3.9330
    -2.2706  -2.2609  -2.2408  -2.1893  -2.1642  -2.1319   9.8679  10.8064
    11.7224  13.3342  13.9753  14.6876  18.1532  18.5627  19.1287  19.3766
    19.5220  20.4815  20.8389  21.5563  21.8561  22.2258  22.4306  22.8907
    23.5710  24.2764  24.4694  24.5445  25.2814  25.5736  25.7495  25.9619
    26.7155  27.3113  27.4038  27.9526  28.2224  28.8607  28.9381  29.8562
    30.0762  30.4408  30.7570  31.5171  31.8238  32.2873  32.3594  32.6453
    32.7593  32.8650  33.4271  33.6932

          k = 0.4000 0.4234 0.3616 (  5075 PWs)   bands (ev):

  -109.4778-109.4726-109.4564-109.4266-109.4042-109.3920 -64.9470 -64.9439
   -64.9402 -64.9339 -64.9288 -64.9264 -64.9258 -64.9202 -64.9145 -64.9120
   -64.9102 -64.9091 -64.9074 -64.9017 -64.8997 -64.8976 -64.8947 -64.8849
   -25.5061 -25.5057  -4.4246  -4.4143  -4.3841  -4.3526  -4.3463  -4.3367
    -4.3302  -4.3272  -4.3042  -4.2426  -4.2323  -4.2233  -4.2138  -4.1906
    -4.1844  -4.1666  -4.1617  -4.1515  -4.1249  -4.1083  -4.0876  -4.0819
    -4.0695  -4.0634  -4.0277  -4.0193  -4.0130  -4.0054  -3.9912  -3.9239
    -2.3146  -2.3091  -2.2234  -2.1742  -2.1652  -2.1415  10.2466  11.1557
    11.9725  12.8291  13.1946  14.1626  17.6266  18.7990  19.1164  19.5361
    20.4848  20.7047  21.2646  21.4243  21.6790  22.0104  22.9034  22.9497
    23.2007  24.2243  24.2964  24.7952  25.3713  25.4950  25.8301  26.6167
    26.7730  27.7210  27.9721  28.1060  28.3795  28.4991  29.2858  29.3270
    29.6156  29.9190  30.2513  31.0979  31.6181  31.9798  32.4062  32.6305
    32.8688  33.2908  33.5968  34.0725

          k = 0.4000 0.4234 0.5424 (  5077 PWs)   bands (ev):

  -109.4901-109.4867-109.4332-109.4228-109.4165-109.3884 -64.9485 -64.9426
   -64.9376 -64.9354 -64.9292 -64.9276 -64.9248 -64.9233 -64.9140 -64.9108
   -64.9093 -64.9082 -64.9074 -64.9045 -64.9018 -64.8993 -64.8910 -64.8897
   -25.5059 -25.5058  -4.4249  -4.4240  -4.3710  -4.3499  -4.3482  -4.3432
    -4.3289  -4.2956  -4.2776  -4.2590  -4.2511  -4.2147  -4.2001  -4.1911
    -4.1861  -4.1656  -4.1492  -4.1418  -4.1052  -4.1040  -4.0914  -4.0802
    -4.0781  -4.0669  -4.0648  -4.0432  -4.0163  -4.0093  -3.9563  -3.9306
    -2.3459  -2.3434  -2.2027  -2.1802  -2.1613  -2.1514  10.8675  11.5461
    11.8699  12.0995  13.1100  13.5423  17.7251  18.2905  19.3040  19.7020
    20.1991  20.4477  21.8124  21.9741  22.0736  22.4128  22.6962  23.0228
    23.3844  24.1603  24.3454  24.7810  25.2706  25.6891  26.1993  26.4037
    26.9905  27.2278  27.7187  28.0316  28.5282  28.7596  28.9748  29.4348
    29.7024  30.0972  30.6073  30.6847  31.6499  31.7613  32.0268  32.2933
    32.7292  33.2841  33.7029  34.1713

          k = 0.4000 0.6158 0.0000 (  5071 PWs)   bands (ev):

  -109.5092-109.4836-109.4613-109.4034-109.3845-109.3675 -64.9503 -64.9425
   -64.9364 -64.9353 -64.9288 -64.9259 -64.9236 -64.9223 -64.9214 -64.9196
   -64.9159 -64.9045 -64.9023 -64.8955 -64.8938 -64.8923 -64.8909 -64.8808
   -25.5061 -25.5058  -4.4317  -4.3991  -4.3719  -4.3418  -4.3389  -4.3347
    -4.3323  -4.3131  -4.3062  -4.2927  -4.2787  -4.2638  -4.2548  -4.2315
    -4.1701  -4.1623  -4.1341  -4.1267  -4.1164  -4.1005  -4.0838  -4.0668
    -4.0648  -4.0577  -4.0366  -4.0291  -4.0184  -4.0100  -3.9769  -3.9216
    -2.2459  -2.2452  -2.2382  -2.1919  -2.1752  -2.1237   9.8099  10.8509
    11.2074  13.7861  14.3526  14.8622  17.7340  18.9021  19.5046  19.5071
    19.6359  20.0462  20.3482  20.8301  21.7422  21.8599  23.3997  23.5094
    23.7077  23.8425  24.1741  24.6422  24.9914  25.2787  25.7301  26.6811
    26.7466  27.2533  27.3507  27.6259  27.8036  28.2457  28.3536  30.6860
    30.6915  31.0659  31.1818  31.7395  32.0990  32.1517  32.3052  32.3934
    32.8255  32.9736  33.0908  33.1362

          k = 0.4000 0.6158 0.1808 (  5066 PWs)   bands (ev):

  -109.4761-109.4696-109.4611-109.4133-109.3838-109.3757 -64.9505 -64.9392
   -64.9374 -64.9309 -64.9279 -64.9256 -64.9237 -64.9208 -64.9169 -64.9104
   -64.9082 -64.9059 -64.9046 -64.8997 -64.8967 -64.8952 -64.8909 -64.8837
   -25.5061 -25.5058  -4.4118  -4.4031  -4.3847  -4.3587  -4.3501  -4.3437
    -4.3286  -4.3205  -4.3117  -4.2582  -4.2430  -4.2407  -4.2302  -4.2228
    -4.1749  -4.1698  -4.1642  -4.1494  -4.1184  -4.0968  -4.0877  -4.0708
    -4.0645  -4.0583  -4.0301  -4.0256  -4.0215  -3.9958  -3.9639  -3.9451
    -2.2682  -2.2633  -2.2389  -2.1810  -2.1674  -2.1299   9.9346  10.9726
    11.3180  13.6974  14.0687  14.2919  18.5087  18.6818  18.8343  19.1637
    20.0452  20.4288  21.1013  21.2813  21.5437  21.8285  22.6334  22.7706
    23.8777  24.1458  24.3383  24.5427  25.3471  25.5313  25.6507  26.5986
    27.0709  27.2321  27.5092  27.7494  27.9810  28.4854  28.5491  30.0257
    30.2583  30.5515  30.7111  31.7952  31.9368  32.1714  32.4714  32.5807
    32.7704  33.2313  33.3824  33.8253

          k = 0.4000 0.6158 0.3616 (  5090 PWs)   bands (ev):

  -109.5026-109.4966-109.4721-109.4320-109.4262-109.3969 -64.9481 -64.9472
   -64.9454 -64.9341 -64.9332 -64.9322 -64.9261 -64.9241 -64.9223 -64.9156
   -64.9147 -64.9106 -64.9096 -64.9042 -64.9001 -64.8986 -64.8938 -64.8872
   -25.5060 -25.5058  -4.4133  -4.4099  -4.3850  -4.3489  -4.3462  -4.3380
    -4.3320  -4.3272  -4.3112  -4.2369  -4.2330  -4.2138  -4.2127  -4.1955
    -4.1867  -4.1742  -4.1680  -4.1599  -4.1309  -4.1045  -4.0941  -4.0751
    -4.0694  -4.0612  -4.0295  -4.0194  -4.0156  -4.0065  -3.9781  -3.9507
    -2.3152  -2.3116  -2.2209  -2.1695  -2.1611  -2.1468  10.3077  11.3050
    11.6130  12.8739  13.4689  13.8443  18.0851  18.5634  19.2655  19.6570
    20.1828  20.6076  20.9681  21.7101  21.7297  22.0860  22.7646  22.9986
    23.4842  23.8057  24.1563  24.8812  25.2141  25.3038  26.4742  26.7009
    27.1380  27.4919  27.6503  27.9649  28.2050  28.6101  29.2000  29.2934
    29.7719  30.1499  30.3627  31.0301  31.1568  32.0935  32.8127  32.8451
    33.0651  33.4925  33.5822  33.7791

          k = 0.4000 0.6158 0.5424 (  5076 PWs)   bands (ev):

  -109.4949-109.4716-109.4313-109.4224-109.4161-109.3943 -64.9496 -64.9414
   -64.9346 -64.9313 -64.9280 -64.9255 -64.9243 -64.9195 -64.9154 -64.9095
   -64.9092 -64.9082 -64.9079 -64.9064 -64.9036 -64.9006 -64.8936 -64.8925
   -25.5059 -25.5058  -4.4200  -4.4198  -4.3621  -4.3453  -4.3434  -4.3384
    -4.3299  -4.3081  -4.2712  -4.2656  -4.2552  -4.2334  -4.2059  -4.1769
    -4.1686  -4.1583  -4.1555  -4.1498  -4.1088  -4.1018  -4.0919  -4.0832
    -4.0795  -4.0743  -4.0653  -4.0402  -4.0078  -4.0014  -3.9621  -3.9499
    -2.3458  -2.3450  -2.1970  -2.1742  -2.1592  -2.1559  10.9296  11.6883
    11.8219  11.9754  13.1400  13.3212  18.2777  18.7914  18.9756  19.4441
    19.6751  20.1318  22.0701  22.1296  22.4402  22.8190  22.8805  23.0489
    23.1757  23.6755  23.8362  24.8608  25.3964  25.6116  26.3559  26.5946
    27.0761  27.1846  27.4798  27.7995  28.3084  28.5474  29.1221  29.3785
    30.0916  30.5562  30.7864  30.9327  31.1568  31.4248  32.5251  32.7193
    32.9834  33.0552  33.6512  33.8448

          k = 0.4000-0.3464 0.0000 (  5079 PWs)   bands (ev):

  -109.4991-109.4744-109.4664-109.4273-109.4020-109.3888 -64.9496 -64.9433
   -64.9378 -64.9367 -64.9331 -64.9268 -64.9214 -64.9202 -64.9193 -64.9185
   -64.9133 -64.9077 -64.9064 -64.9019 -64.8996 -64.8977 -64.8940 -64.8841
   -25.5064 -25.5056  -4.4367  -4.4258  -4.3702  -4.3573  -4.3487  -4.3316
    -4.3281  -4.3190  -4.3151  -4.2921  -4.2908  -4.2507  -4.2473  -4.1911
    -4.1512  -4.1477  -4.1357  -4.1272  -4.1248  -4.1048  -4.0932  -4.0778
    -4.0672  -4.0672  -4.0416  -4.0305  -4.0304  -4.0091  -3.9267  -3.9209
    -2.2498  -2.2485  -2.2362  -2.2080  -2.1628  -2.1335   9.6539  10.6714
    11.9469  13.0480  14.5882  15.1388  17.7256  18.6982  19.0913  19.5410
    19.5458  19.6210  20.4747  21.1037  22.3886  22.5845  23.1565  23.2996
    23.6318  23.8503  24.3543  24.4828  25.1894  25.2145  25.2511  26.1910
    26.2650  27.0167  27.5877  27.9928  28.1664  28.8677  29.3857  29.9277
    30.2025  30.7133  31.0250  31.4031  31.8740  31.8921  32.2220  32.4694
    32.6923  32.7156  33.2924  33.8540

          k = 0.4000-0.3464 0.1808 (  5074 PWs)   bands (ev):

  -109.4764-109.4675-109.4583-109.4276-109.4028-109.3922 -64.9512 -64.9411
   -64.9367 -64.9303 -64.9285 -64.9262 -64.9241 -64.9214 -64.9146 -64.9136
   -64.9111 -64.9091 -64.9068 -64.9043 -64.8982 -64.8961 -64.8957 -64.8854
   -25.5063 -25.5056  -4.4353  -4.4068  -4.3921  -4.3698  -4.3455  -4.3367
    -4.3320  -4.3201  -4.3140  -4.2739  -4.2604  -4.2466  -4.2206  -4.1956
    -4.1705  -4.1473  -4.1441  -4.1420  -4.1173  -4.1007  -4.0977  -4.0883
    -4.0756  -4.0485  -4.0327  -4.0280  -4.0237  -4.0102  -3.9436  -3.9174
    -2.2728  -2.2594  -2.2425  -2.1950  -2.1623  -2.1348   9.7815  10.7993
    12.0394  13.0313  13.9589  14.8933  18.0079  18.4120  19.1597  19.2838
    19.6788  20.4146  20.5505  21.7809  22.1563  22.1972  22.5163  23.0541
    23.4882  24.2227  24.4528  24.7377  25.2193  25.3500  25.7599  26.0579
    26.2086  27.3401  27.5903  27.9116  28.4409  28.9915  29.2473  29.5631
    29.8863  30.5177  30.7367  31.3638  31.7087  32.1946  32.3359  32.4293
    32.6133  33.0251  33.6265  33.7535

          k = 0.4000-0.3464 0.3616 (  5081 PWs)   bands (ev):

  -109.4928-109.4819-109.4574-109.4328-109.4106-109.3880 -64.9499 -64.9455
   -64.9406 -64.9349 -64.9313 -64.9282 -64.9253 -64.9205 -64.9167 -64.9153
   -64.9115 -64.9089 -64.9067 -64.9039 -64.9026 -64.8993 -64.8921 -64.8843
   -25.5061 -25.5057  -4.4314  -4.4184  -4.3869  -4.3564  -4.3450  -4.3362
    -4.3329  -4.3269  -4.3029  -4.2470  -4.2334  -4.2273  -4.2223  -4.1975
    -4.1842  -4.1561  -4.1475  -4.1380  -4.1241  -4.1121  -4.1024  -4.0738
    -4.0671  -4.0587  -4.0294  -4.0221  -4.0133  -4.0043  -3.9920  -3.9109
    -2.3153  -2.3074  -2.2271  -2.1786  -2.1693  -2.1402  10.1634  11.1509
    12.2287  12.7550  13.0550  14.3410  17.4196  18.5445  19.1434  19.8487
    20.3602  20.5534  21.2175  21.5134  21.8315  22.0597  22.6764  23.2354
    23.2841  24.2041  24.5255  24.7089  25.3437  25.5403  25.6816  26.5662
    26.6894  27.5162  28.0925  28.2935  28.3744  28.6617  29.1205  29.2525
    29.4988  30.0735  30.1927  31.0730  31.7105  31.8896  32.2713  32.4596
    32.9435  33.2312  33.6569  34.0589

          k = 0.4000-0.3464 0.5424 (  5079 PWs)   bands (ev):

  -109.4981-109.4698-109.4433-109.4259-109.4237-109.3894 -64.9475 -64.9421
[...]
    39.0696  39.2265  39.3176  39.4547  40.1978  40.3206  40.7038  40.7820
    40.8241  40.9659  41.4254  41.5181

          k = 0.4323 0.6656 0.1956 (  4019 PWs)   bands (ev):

  -101.8193-101.8148-101.8037-101.7611-101.7481-101.7333 -57.3181 -57.3119
   -57.3094 -57.3077 -57.2995 -57.2961 -57.2946 -57.2941 -57.2917 -57.2916
   -57.2901 -57.2878 -57.2874 -57.2856 -57.2846 -57.2830 -57.2820 -57.2809
   -17.8419 -17.8408   2.7014   2.7266   2.7536   2.7776   2.7844   2.8251
     2.8548   2.8568   2.9209   2.9776   3.0127   3.0216   3.0518   3.0857
     3.1464   3.1698   3.2514   3.2826   3.3460   3.3808   3.4079   3.4506
     3.4673   3.4964   3.5457   3.5536   3.5790   3.6503   3.7102   3.7325
     5.1634   5.2280   5.2582   5.4244   5.4615   5.5510  16.0487  16.7994
    17.2786  20.4885  21.1107  21.4200  24.8513  25.1895  25.4819  25.6460
    26.8090  26.9949  28.0584  28.4283  28.9329  29.2901  29.9639  30.1174
    31.1699  31.3480  31.6204  31.9828  33.0642  33.2547  33.4895  34.5961
    35.2079  35.6043  35.8947  36.2715  36.3608  37.3334  37.4493  38.0003
    38.4402  38.5731  39.5779  39.9156  40.1476  40.3463  40.5559  40.7160
    40.8889  41.1544  41.5141  41.8256

          k = 0.4323 0.6656 0.3911 (  4023 PWs)   bands (ev):

  -101.8194-101.8109-101.8095-101.7691-101.7512-101.7367 -57.3146 -57.3120
   -57.3089 -57.3056 -57.3017 -57.3014 -57.2995 -57.2969 -57.2960 -57.2940
   -57.2914 -57.2909 -57.2884 -57.2877 -57.2862 -57.2812 -57.2797 -57.2752
   -17.8414 -17.8406   2.6993   2.7073   2.7511   2.7791   2.7899   2.8896
     2.8984   2.9143   2.9387   3.0022   3.0157   3.0811   3.1035   3.1156
     3.1580   3.2183   3.2376   3.2522   3.3038   3.3546   3.3808   3.4522
     3.4639   3.4736   3.5384   3.5808   3.5868   3.6138   3.6718   3.7309
     5.0546   5.0669   5.2229   5.4524   5.4749   5.5023  16.5134  17.3161
    17.7543  19.6377  20.2198  20.6915  24.4400  25.0130  25.4916  26.4764
    27.2188  27.8052  28.1514  28.5011  28.7945  28.9641  30.2503  30.5102
    30.7521  31.0550  31.5159  32.2843  32.6755  32.8002  34.4698  34.6918
    35.4267  35.9246  36.1557  36.7401  36.8301  37.5395  37.8174  38.1736
    38.3245  38.4269  38.5521  38.8181  39.1673  40.1385  40.5656  40.9499
    41.0715  41.4995  41.6225  41.9434

          k = 0.4323 0.6656 0.5867 (  4018 PWs)   bands (ev):

  -101.8043-101.7907-101.7840-101.7646-101.7535-101.7443 -57.3129 -57.3102
   -57.3080 -57.3055 -57.3020 -57.3006 -57.3003 -57.2981 -57.2968 -57.2931
   -57.2914 -57.2889 -57.2874 -57.2848 -57.2805 -57.2792 -57.2763 -57.2728
   -17.8409 -17.8406   2.6964   2.6990   2.7981   2.8157   2.8207   2.8751
     2.8924   2.9214   2.9637   2.9732   3.0294   3.0597   3.1688   3.1884
     3.2063   3.2262   3.2412   3.2890   3.3541   3.3659   3.3868   3.4163
     3.4297   3.4320   3.4607   3.5284   3.6010   3.6073   3.7053   3.7333
     4.9170   4.9196   5.3012   5.3894   5.4835   5.4946  17.2679  17.9911
    18.1999  18.4095  19.7032  19.9563  24.7331  25.2566  25.5986  25.9313
    26.6532  27.0746  28.7722  29.0462  29.2423  29.9110  30.0156  30.3825
    30.7909  30.8967  31.3107  33.0406  33.1083  33.3938  34.4664  34.5691
    35.2401  35.4278  35.8191  36.0831  37.0399  37.3575  37.8895  38.1229
    38.2237  38.6412  39.0162  39.3614  39.4079  39.7422  40.2673  40.5663
    41.3125  41.4556  41.6741  42.0381

          k = 0.4323-0.3744 0.0000 (  4024 PWs)   bands (ev):

  -101.8387-101.8245-101.8066-101.7702-101.7557-101.7229 -57.3149 -57.3143
   -57.3080 -57.3061 -57.3029 -57.3014 -57.3009 -57.2970 -57.2948 -57.2936
   -57.2924 -57.2908 -57.2875 -57.2852 -57.2847 -57.2830 -57.2808 -57.2759
   -17.8432 -17.8402   2.6551   2.6765   2.7429   2.7580   2.7849   2.8211
     2.8468   2.8805   2.8914   2.9084   2.9861   2.9995   3.0791   3.1347
     3.1895   3.2074   3.2513   3.3303   3.3505   3.3988   3.4086   3.4128
     3.4612   3.4797   3.5134   3.5377   3.6003   3.6117   3.7879   3.7907
     5.1494   5.2689   5.3520   5.4108   5.4445   5.5333  15.5898  16.4027
    18.1348  19.6122  21.9949  22.9277  23.8980  25.0287  25.5793  25.8617
    25.8749  26.1953  27.6094  28.4001  29.6240  29.9289  30.3472  30.8392
    30.9674  31.7257  32.0180  32.4168  32.4205  32.6246  33.2344  33.8902
    34.3865  35.3298  35.8262  36.2942  36.4812  37.7938  38.0316  38.4244
    38.5979  38.6829  39.1804  39.2641  39.4399  39.5335  39.9556  40.4126
    40.9106  41.2749  41.9819  42.2596

          k = 0.4323-0.3744 0.1956 (  4005 PWs)   bands (ev):

  -101.7966-101.7884-101.7732-101.7514-101.7407-101.7168 -57.3120 -57.3095
   -57.3050 -57.3024 -57.2975 -57.2953 -57.2939 -57.2916 -57.2898 -57.2887
   -57.2871 -57.2861 -57.2847 -57.2841 -57.2821 -57.2798 -57.2771 -57.2702
   -17.8429 -17.8402   2.6516   2.6917   2.7404   2.7658   2.7871   2.8367
     2.8524   2.8800   2.9121   2.9427   2.9839   3.0302   3.1110   3.1405
     3.1798   3.2276   3.2510   3.3009   3.3422   3.3740   3.4135   3.4198
     3.4372   3.4846   3.5345   3.5508   3.5988   3.6133   3.7381   3.8025
     5.1695   5.2008   5.2854   5.3784   5.4553   5.5446  15.7641  16.5973
    18.2779  19.6665  21.0347  22.3263  24.2547  24.8187  25.5723  25.9452
    26.2241  26.9076  27.8033  29.0758  29.3047  29.5554  29.8432  30.4409
    30.9326  31.6260  32.0743  32.4130  32.6570  33.1557  33.3645  33.8269
    34.4405  35.4016  35.9119  36.3445  36.9650  37.6313  37.8445  38.3150
    38.4341  38.5338  38.6969  39.4351  39.9928  40.0518  40.3554  40.7542
    40.8711  40.9263  41.4887  42.1293

          k = 0.4323-0.3744 0.3911 (  4018 PWs)   bands (ev):

  -101.8073-101.7954-101.7793-101.7684-101.7580-101.7441 -57.3165 -57.3148
   -57.3080 -57.3052 -57.3015 -57.3002 -57.2962 -57.2956 -57.2918 -57.2903
   -57.2894 -57.2876 -57.2868 -57.2854 -57.2839 -57.2823 -57.2785 -57.2752
   -17.8421 -17.8402   2.6624   2.6686   2.7496   2.7877   2.8004   2.8713
     2.9064   2.9123   2.9257   2.9859   3.0414   3.0567   3.1080   3.1490
     3.1798   3.2198   3.2670   3.2785   3.3223   3.3451   3.4003   3.4162
     3.4568   3.4795   3.5530   3.5742   3.5934   3.6148   3.6266   3.8127
     5.0509   5.0805   5.2184   5.4083   5.4248   5.5358  16.2569  17.1200
    18.5551  19.4730  19.8196  21.5171  23.4571  24.7814  25.6758  26.3022
    27.4697  27.6631  28.1485  28.6015  29.1178  29.3982  29.8601  30.5137
    30.6810  31.5452  31.8791  32.3081  32.8299  33.1350  33.2475  34.6036
    34.9077  35.9771  36.5371  36.7093  37.1643  37.3445  37.7190  38.1221
    38.1993  38.4072  38.5685  38.6213  39.5170  39.9898  40.2215  40.5833
    41.2261  41.5068  41.5839  42.0249

          k = 0.4323-0.3744 0.5867 (  4024 PWs)   bands (ev):

  -101.8170-101.7948-101.7870-101.7822-101.7631-101.7439 -57.3170 -57.3141
   -57.3083 -57.3051 -57.3021 -57.3007 -57.2995 -57.2976 -57.2961 -57.2937
   -57.2923 -57.2908 -57.2886 -57.2868 -57.2852 -57.2818 -57.2782 -57.2754
   -17.8412 -17.8406   2.6714   2.6768   2.7625   2.7882   2.8156   2.8739
     2.9017   2.9177   2.9892   3.0197   3.0630   3.1186   3.1341   3.1528
     3.1746   3.1848   3.2609   3.2926   3.3525   3.3696   3.4078   3.4246
     3.4483   3.4562   3.4678   3.5193   3.5859   3.5947   3.7168   3.7902
     4.9214   4.9251   5.2827   5.3514   5.4618   5.5032  17.0351  17.8109
    18.1369  18.6157  19.9901  20.6554  23.4903  24.1695  26.0052  26.3520
    27.6735  27.6927  28.5358  28.8027  29.0022  29.3567  29.6867  30.2044
    31.4360  31.6593  31.9913  32.4330  32.6197  33.4369  33.8614  34.8700
    35.0479  35.6282  36.2489  36.6282  37.2134  37.2706  37.7701  37.8798
    38.0289  38.2081  38.7426  39.1390  39.4058  39.6202  40.2284  40.4105
    40.7984  41.4871  41.9393  42.1162

          k = 0.4323-0.1664 0.0000 (  4008 PWs)   bands (ev):

  -101.8393-101.8008-101.7776-101.7577-101.7432-101.6789 -57.3150 -57.3125
   -57.3068 -57.2999 -57.2980 -57.2962 -57.2959 -57.2944 -57.2929 -57.2919
   -57.2903 -57.2892 -57.2817 -57.2801 -57.2797 -57.2791 -57.2729 -57.2717
   -17.8441 -17.8397   2.6154   2.6383   2.7084   2.7587   2.8134   2.8301
     2.8337   2.8804   2.8899   2.9160   2.9832   3.0515   3.0927   3.1140
     3.1566   3.1660   3.2753   3.3268   3.3576   3.3961   3.4106   3.4457
     3.4980   3.5175   3.5231   3.5308   3.6185   3.6552   3.7968   3.8001
     5.1496   5.2472   5.3273   5.4199   5.4348   5.4965  15.1368  16.9347
    18.4176  19.4240  21.9737  22.7623  23.9318  25.0793  25.3518  25.9285
    26.1729  26.2359  27.0563  28.6358  29.6485  29.8567  30.1710  30.1871
    30.9850  32.2397  32.4048  32.6452  32.6699  32.9257  33.6441  33.9711
    34.0738  35.0171  35.9046  36.5255  36.7138  37.0475  37.6625  37.8007
    38.4235  38.6589  39.0081  39.0865  39.4367  39.4462  39.9236  40.1823
    40.6974  41.1698  42.1465  42.4205

          k = 0.4323-0.1664 0.1956 (  4006 PWs)   bands (ev):

  -101.8371-101.7816-101.7680-101.7494-101.7319-101.7033 -57.3155 -57.3123
   -57.3038 -57.2995 -57.2989 -57.2961 -57.2953 -57.2929 -57.2910 -57.2880
   -57.2879 -57.2865 -57.2846 -57.2829 -57.2811 -57.2793 -57.2728 -57.2715
   -17.8437 -17.8398   2.6283   2.6636   2.7124   2.7767   2.7941   2.8175
     2.8399   2.8642   2.9420   2.9463   2.9738   3.0406   3.0798   3.1039
     3.2088   3.2309   3.2699   3.3063   3.3475   3.3812   3.4128   3.4209
     3.4563   3.5255   3.5332   3.5685   3.6205   3.6551   3.7471   3.8104
     5.1666   5.1848   5.2887   5.3553   5.4348   5.5147  15.3186  17.1119
    18.5263  19.4873  21.0519  22.3597  24.3148  24.6198  25.4293  25.7186
    26.6306  26.7896  27.3375  28.9481  29.3031  29.3479  30.3170  30.6956
    31.1548  31.5388  32.2858  32.5091  32.7355  33.3421  33.7790  33.9767
    34.2300  35.2102  35.9634  36.0896  36.9233  37.0045  37.5324  37.7963
    38.2802  38.8398  38.8758  39.2504  39.5832  40.0537  40.1706  40.4323
    40.6329  41.1834  41.7461  42.2447

          k = 0.4323-0.1664 0.3911 (  4017 PWs)   bands (ev):

  -101.8022-101.7987-101.7840-101.7605-101.7538-101.7427 -57.3166 -57.3160
   -57.3088 -57.3052 -57.3038 -57.3004 -57.2987 -57.2965 -57.2939 -57.2915
   -57.2906 -57.2870 -57.2855 -57.2829 -57.2823 -57.2779 -57.2740 -57.2730
   -17.8428 -17.8400   2.6523   2.6615   2.7463   2.7845   2.8114   2.8290
     2.8685   2.8999   2.9423   2.9995   3.0128   3.0300   3.0794   3.1056
     3.1899   3.2751   3.2904   3.3102   3.3182   3.3729   3.3908   3.4094
     3.4699   3.5310   3.5646   3.5861   3.6017   3.6368   3.6620   3.8202
     5.0425   5.0911   5.2093   5.3775   5.4044   5.5061  15.8555  17.5920
    18.5764  19.4729  19.9543  21.6213  23.5297  24.5926  25.3440  26.4769
    26.8492  26.9481  28.2558  28.4945  29.2799  30.0883  30.3175  30.7515
    30.9611  31.5670  32.1138  32.3534  32.6553  33.2173  33.4920  34.7958
    34.8485  35.5362  36.0519  36.3469  36.7041  37.2405  37.4455  38.0605
    38.2642  38.3494  38.7344  38.9475  39.4121  39.8471  40.2423  40.2637
    41.1624  41.5553  41.6806  42.0116

          k = 0.4323-0.1664 0.5867 (  4031 PWs)   bands (ev):

  -101.8286-101.8013-101.7995-101.7888-101.7680-101.7555 -57.3189 -57.3168
   -57.3109 -57.3077 -57.3051 -57.3041 -57.3010 -57.3004 -57.2987 -57.2970
   -57.2950 -57.2930 -57.2892 -57.2877 -57.2847 -57.2805 -57.2772 -57.2744
   -17.8416 -17.8406   2.6668   2.6714   2.7613   2.7852   2.8178   2.8567
     2.8616   2.8944   2.9837   3.0167   3.0527   3.0884   3.1053   3.1224
     3.1851   3.2202   3.2689   3.3039   3.3431   3.3609   3.4269   3.4433
     3.4645   3.4868   3.5116   3.5497   3.6176   3.6215   3.7211   3.7954
     4.9216   4.9319   5.2672   5.3315   5.4313   5.4726  16.6757  17.6856
    18.3537  19.0357  20.1141  20.7889  23.4823  24.0975  25.6434  26.1902
    26.9017  27.0384  28.6857  29.0822  29.1357  29.5306  30.4028  30.8240
    31.6534  31.8001  32.1657  32.3740  32.5985  33.3055  33.8882  34.9446
    35.1583  35.5897  36.1082  36.2621  36.6695  37.1517  37.5885  37.7291
    37.9200  38.1578  38.5197  39.1307  39.3732  39.7703  40.2014  40.4815
    40.6277  41.4279  41.9905  42.0952

          k = 0.4323 0.0416 0.0000 (  4013 PWs)   bands (ev):

  -101.8534-101.8096-101.7933-101.7571-101.7316-101.6904 -57.3198 -57.3107
   -57.3096 -57.3023 -57.3001 -57.2967 -57.2944 -57.2933 -57.2927 -57.2920
   -57.2883 -57.2871 -57.2861 -57.2845 -57.2830 -57.2795 -57.2768 -57.2724
   -17.8444 -17.8396   2.5996   2.6564   2.6799   2.7591   2.7835   2.8586
     2.8653   2.8822   2.9032   2.9121   2.9617   3.0539   3.0608   3.0858
     3.1673   3.1883   3.2338   3.3164   3.3543   3.4125   3.4285   3.4697
     3.5110   3.5124   3.5183   3.5521   3.6218   3.7148   3.7587   3.7983
     5.1437   5.2569   5.3204   5.4076   5.4218   5.4962  15.0188  17.3383
    17.9399  19.8199  21.8476  22.4969  23.9411  25.1591  25.6853  26.0015
    26.0291  26.1952  27.4124  28.1805  29.3821  29.7145  29.8698  29.9904
    31.6661  32.0272  32.4929  32.6079  32.6617  33.3163  34.0281  34.2303
    34.4520  34.9344  35.9859  36.1336  36.3437  36.5279  37.4324  37.8884
    38.5380  38.5764  38.7740  39.1407  39.2893  39.4904  40.2365  40.4233
    40.7277  41.0368  41.7103  41.9181

          k = 0.4323 0.0416 0.1956 (  4011 PWs)   bands (ev):

  -101.8315-101.8032-101.7959-101.7484-101.7257-101.7095 -57.3179 -57.3119
   -57.3089 -57.3040 -57.3011 -57.2968 -57.2964 -57.2933 -57.2904 -57.2900
   -57.2884 -57.2860 -57.2856 -57.2840 -57.2815 -57.2778 -57.2754 -57.2732
   -17.8440 -17.8397   2.6260   2.6707   2.6944   2.7798   2.7872   2.8087
     2.8545   2.8714   2.9039   2.9629   2.9827   3.0414   3.0576   3.0976
     3.2025   3.2247   3.2720   3.2889   3.3314   3.3913   3.4299   3.4404
     3.4753   3.5249   3.5359   3.5756   3.6272   3.7184   3.7487   3.7719
     5.1607   5.1837   5.2884   5.3426   5.4526   5.4870  15.2063  17.5034
    18.0757  19.7656  21.3237  21.7963  24.7166  25.0366  25.0439  25.3713
    26.6998  26.7219  27.8660  28.4386  29.0098  29.1285  30.4779  30.6966
    31.3045  31.7853  32.1371  32.2494  33.2355  33.6271  33.8415  34.3047
    34.5135  34.9964  35.5384  36.2148  36.5885  36.7616  37.0657  37.8519
    38.3466  38.7546  38.9929  39.4537  39.5938  39.8394  40.1069  40.2399
    41.0285  41.2411  41.8250  41.8837

          k = 0.4323 0.0416 0.3911 (  4013 PWs)   bands (ev):

  -101.8129-101.8005-101.7664-101.7566-101.7470-101.7320 -57.3174 -57.3163
   -57.3061 -57.3060 -57.3000 -57.2988 -57.2971 -57.2965 -57.2963 -57.2919
   -57.2895 -57.2873 -57.2862 -57.2809 -57.2778 -57.2767 -57.2754 -57.2703
   -17.8429 -17.8400   2.6598   2.6680   2.7570   2.7797   2.7973   2.8083
     2.8700   2.8872   2.9312   2.9941   3.0146   3.0328   3.0633   3.1038
     3.1976   3.2563   3.2747   3.3121   3.3207   3.3988   3.4085   3.4265
     3.4688   3.5319   3.5607   3.5899   3.6043   3.6599   3.7206   3.7850
     5.0391   5.0914   5.2069   5.3614   5.4375   5.4672  15.7443  17.9603
    18.3032  19.3008  20.4133  21.2550  24.0536  24.6041  25.2579  25.7532
    26.8493  27.1004  28.1745  28.3802  29.4799  29.9612  30.2711  30.9176
    31.0809  31.6443  32.1560  32.3568  33.1237  33.4227  33.5986  34.6119
    34.9872  35.3169  35.7411  36.1832  36.3302  37.1324  37.2786  38.1786
    38.3519  38.4635  38.6833  39.1829  39.2725  39.9802  40.0788  40.5141
    41.1980  41.2164  41.4841  42.1096

          k = 0.4323 0.0416 0.5867 (  4023 PWs)   bands (ev):

  -101.8167-101.7997-101.7857-101.7728-101.7562-101.7524 -57.3155 -57.3146
   -57.3087 -57.3060 -57.3029 -57.3023 -57.3014 -57.2995 -57.2964 -57.2957
   -57.2938 -57.2917 -57.2886 -57.2846 -57.2811 -57.2782 -57.2762 -57.2739
   -17.8417 -17.8406   2.6726   2.6800   2.7779   2.7899   2.8170   2.8356
     2.8468   2.8801   2.9558   2.9822   3.0650   3.0840   3.1148   3.1310
     3.1966   3.2085   3.2348   3.3331   3.3575   3.3662   3.4306   3.4620
     3.4683   3.4749   3.5261   3.5410   3.6542   3.6656   3.7211   3.7678
     4.9214   4.9335   5.2672   5.3329   5.4291   5.4463  16.5813  17.6090
    18.6306  19.1217  20.0821  20.5287  24.1247  24.7210  24.8820  25.3884
    26.9131  26.9868  28.4996  29.0169  29.3512  29.4677  31.0327  31.2107
    31.4885  31.5818  32.1390  32.6583  32.9481  33.1899  34.0370  34.9251
    35.2260  35.3984  35.7968  35.9825  36.5905  36.7998  37.4612  37.6702
    37.7801  38.3209  38.7330  39.1972  39.4147  40.0862  40.2755  40.4540
    40.7711  41.1022  41.7452  41.8604

     the Fermi energy is    35.4595 ev

!    total energy              =   -2978.57350833 Ry
     Harris-Foulkes estimate   =   -2978.57356937 Ry
     estimated scf accuracy    <       0.00007540 Ry

     The total energy is the sum of the following terms:

     one-electron contribution =    -812.08728693 Ry
     hartree contribution      =     504.47239918 Ry
     xc contribution           =    -236.55800947 Ry
     ewald contribution        =   -2434.09659311 Ry
     smearing contrib. (-TS)   =      -0.30401800 Ry

     convergence has been achieved in  11 iterations

     Forces acting on atoms (Ry/au):

     atom    1 type  1   force =     0.06455811    0.03727264    0.00000000
     atom    2 type  1   force =     0.06455811   -0.03727264    0.00000000
     atom    3 type  1   force =    -0.06455811   -0.03727264    0.00000000
     atom    4 type  1   force =    -0.06455811    0.03727264    0.00000000
     atom    5 type  1   force =     0.00000000   -0.07454528    0.00000000
     atom    6 type  1   force =     0.00000000    0.07454528    0.00000000
     atom    7 type  2   force =     0.00000000    0.00000000    0.00000000
     atom    8 type  2   force =     0.00000000    0.00000000    0.00000000

     Total force =     0.182598     Total SCF correction =     0.000000


     entering subroutine stress ...

          total   stress  (Ry/bohr**3)                   (kbar)     P=  400.97
   0.00269562   0.00000000   0.00000000        396.54      0.00      0.00
   0.00000000   0.00269562   0.00000000          0.00    396.54      0.00
   0.00000000   0.00000000   0.00278598          0.00      0.00    409.83


     Writing output data file Prototype-La-hP8-Mg3Cd.save
 
     init_run     :     14.16s CPU     17.65s WALL (       2 calls)
     electrons    :   2818.27s CPU   3343.09s WALL (       5 calls)
     update_pot   :      2.60s CPU      2.62s WALL (       3 calls)
     forces       :     13.09s CPU     13.89s WALL (       5 calls)
     stress       :     39.98s CPU     41.09s WALL (       5 calls)

     Called by init_run:
     wfcinit      :     13.30s CPU     16.75s WALL (       2 calls)
     potinit      :      0.41s CPU      0.41s WALL (       2 calls)

     Called by electrons:
     c_bands      :   2726.92s CPU   3213.82s WALL (      40 calls)
     sum_band     :     90.99s CPU    122.83s WALL (      40 calls)
     v_of_rho     :      0.08s CPU      0.09s WALL (      45 calls)
     mix_rho      :      0.07s CPU      0.10s WALL (      40 calls)

     Called by c_bands:
     init_us_2    :      5.43s CPU      6.79s WALL (    5888 calls)
     ccgdiagg     :   2442.73s CPU   2848.87s WALL (    2849 calls)
     wfcrot       :    291.95s CPU    371.65s WALL (    2913 calls)

     Called by *cgdiagg:
     h_psi        :   1820.06s CPU   2222.56s WALL ( 1702090 calls)
     cdiaghg      :     14.64s CPU     15.82s WALL (    2913 calls)

     Called by h_psi:
     add_vuspsi   :    225.93s CPU    269.79s WALL ( 1702090 calls)

     General routines
     calbec       :    514.85s CPU    537.01s WALL ( 3401907 calls)
     fft          :      0.12s CPU      0.15s WALL (     203 calls)
     fftw         :   1336.54s CPU   1616.48s WALL ( 4304042 calls)
     davcio       :      3.22s CPU      8.41s WALL (    8448 calls)
 
     Parallel routines
     fft_scatter  :    487.24s CPU    599.25s WALL ( 4304245 calls)
 
     PWSCF        : 48m 8.84s CPU    56m59.67s WALL

 
   This run was terminated on:  11: 7:19  22Mar2018            

=------------------------------------------------------------------------------=
   JOB DONE.
=------------------------------------------------------------------------------=
