
     Program PWSCF v.5.0.2 starts on 22Mar2018 at  0:36:43 

     This program is part of the open-source Quantum ESPRESSO suite
     for quantum simulation of materials; please cite
         "P. Giannozzi et al., J. Phys.:Condens. Matter 21 395502 (2009);
          URL http://www.quantum-espresso.org", 
     in publications or presentations arising from this work. More details at
     http://www.quantum-espresso.org/quote.php

     Parallel version (MPI), running on     4 processors
     R & G space division:  proc/nbgrp/npool/nimage =       4

     Current dimensions of program PWSCF are:
     Max number of different atomic species (ntypx) = 10
     Max number of k-points (npk) =  40000
     Max angular momentum in pseudopotentials (lmaxx) =  3
     Waiting for input...
     Reading input from standard input

     Subspace diagonalization in iterative solution of the eigenvalue problem:
     a serial algorithm will be used

 
     Parallelization info
     --------------------
     sticks:   dense  smooth     PW     G-vecs:    dense   smooth      PW
     Min         356     356    106                 9670     9670    1578
     Max         358     358    108                 9671     9671    1579
     Sum        1429    1429    427                38681    38681    6313
 


     bravais-lattice index     =            0
     lattice parameter (alat)  =      13.3930  a.u.
     unit-cell volume          =    1134.0956 (a.u.)^3
     number of atoms/cell      =            4
     number of atomic types    =            2
     number of electrons       =        72.00
     number of Kohn-Sham states=           43
     kinetic-energy cutoff     =      40.0000  Ry
     charge density cutoff     =     160.0000  Ry
     convergence threshold     =      1.0E-04
     mixing beta               =       0.7000
     number of iterations used =            8  plain     mixing
     Exchange-correlation      = SLA-PZ-NOGX-NOGC ( 1 1 0 0 0)
     EXX-fraction              =        0.00
     nstep                     =           50


     celldm(1)=  13.392972  celldm(2)=   0.000000  celldm(3)=   0.000000
     celldm(4)=   0.000000  celldm(5)=   0.000000  celldm(6)=   0.000000

     crystal axes: (cart. coord. in units of alat)
               a(1) = (   1.000000   0.000000   0.000000 )  
               a(2) = (  -0.776311   0.630350   0.000000 )  
               a(3) = (   0.000000   0.000000   0.748922 )  

     reciprocal axes: (cart. coord. in units 2 pi/alat)
               b(1) = (  1.000000  1.231554  0.000000 )  
               b(2) = (  0.000000  1.586419  0.000000 )  
               b(3) = (  0.000000  0.000000  1.335252 )  


     PseudoPot. # 1 for Ce read from file:
     /home/jld5415/pp.La/Ce.UPF
     MD5 check sum: 44451aa79a44a00cf2bc029dc19922f6
     Pseudo is Norm-conserving, Zval = 12.0
     Generated in analytical, separable form
     Using radial grid of 1255 points,  6 beta functions with: 
                l(1) =   0
                l(2) =   0
                l(3) =   1
                l(4) =   1
                l(5) =   2
                l(6) =   3

     PseudoPot. # 2 for Yb read from file:
     /home/jld5415/pp.La/Yb.UPF
     MD5 check sum: 3e859b81cc28c53ec6aa3a2e888efcdf
     Pseudo is Norm-conserving, Zval = 24.0
     Generated in analytical, separable form
     Using radial grid of 1269 points,  6 beta functions with: 
                l(1) =   0
                l(2) =   0
                l(3) =   1
                l(4) =   1
                l(5) =   2
                l(6) =   3

     atomic species   valence    mass     pseudopotential
        Tl            12.00   204.38300     Ce( 1.00)
        I             24.00   126.90400     Yb( 1.00)

      2 Sym. Ops., with inversion, found
          (note:  2 additional sym.ops. were found but ignored
           their fractional translations are incommensurate with FFT grid)


   Cartesian axes

     site n.     atom                  positions (alat units)
         1           Tl  tau(   1) = (  -0.0906317   0.3870269   0.5616917  )
         2           Tl  tau(   2) = (   0.3143210   0.2433234   0.1872306  )
         3           I   tau(   3) = (  -0.5408004   0.5467760   0.5616917  )
         4           I   tau(   4) = (   0.7644896   0.0835744   0.1872306  )

     number of k points=   106  gaussian smearing, width (Ry)=  0.1000

     Number of k-points >= 100: set verbosity='high' to print them.

     Dense  grid:    38681 G-vectors     FFT dimensions: (  54,  54,  45)

     Largest allocated arrays     est. size (Mb)     dimensions
        Kohn-Sham Wavefunctions         0.81 Mb     (   1230,   43)
        NL pseudopotentials             1.50 Mb     (   1230,   80)
        Each V/rho on FFT grid          0.53 Mb     (  34992)
        Each G-vector array             0.07 Mb     (   9671)
        G-vector shells                 0.07 Mb     (   9671)
     Largest temporary arrays     est. size (Mb)     dimensions
        Each subspace H/S matrix        0.03 Mb     (  43,  43)
        Each <psi_i|beta_j> matrix      0.05 Mb     (     80,   43)
        Arrays for rho mixing           4.27 Mb     (  34992,   8)

     Initial potential from superposition of free atoms

     Starting from uniform charge
     Starting wfc are    0 randomized atomic wfcs

     total cpu time spent up to now is        8.9 secs

     Self-consistent Calculation

     iteration #  1     ecut=    40.00 Ry     beta=0.70
     CG style diagonalization
     ethr =  1.00E-02,  avg # of iterations = 19.9

     total cpu time spent up to now is      201.3 secs

     total energy              =    -489.87972311 Ry
     Harris-Foulkes estimate   =   -1582.74360916 Ry
     estimated scf accuracy    <    1307.02359677 Ry

     iteration #  2     ecut=    40.00 Ry     beta=0.70
     CG style diagonalization
     c_bands:  3 eigenvalues not converged
     c_bands:  2 eigenvalues not converged
     c_bands:  4 eigenvalues not converged
     c_bands:  4 eigenvalues not converged
     c_bands:  2 eigenvalues not converged
     c_bands:  2 eigenvalues not converged
     c_bands:  4 eigenvalues not converged
     c_bands:  4 eigenvalues not converged
     c_bands:  2 eigenvalues not converged
     c_bands:  4 eigenvalues not converged
     c_bands:  1 eigenvalues not converged
     c_bands:  1 eigenvalues not converged
     c_bands:  2 eigenvalues not converged
     c_bands:  3 eigenvalues not converged
     c_bands:  4 eigenvalues not converged
     c_bands:  1 eigenvalues not converged
     c_bands:  4 eigenvalues not converged
     c_bands:  3 eigenvalues not converged
     c_bands:  2 eigenvalues not converged
     c_bands:  1 eigenvalues not converged
     c_bands:  3 eigenvalues not converged
     c_bands:  3 eigenvalues not converged
     c_bands:  3 eigenvalues not converged
     c_bands:  3 eigenvalues not converged
     c_bands:  2 eigenvalues not converged
     c_bands:  3 eigenvalues not converged
     c_bands:  3 eigenvalues not converged
     c_bands:  2 eigenvalues not converged
     c_bands:  2 eigenvalues not converged
     c_bands:  4 eigenvalues not converged
     c_bands:  2 eigenvalues not converged
     c_bands:  3 eigenvalues not converged
     c_bands:  5 eigenvalues not converged
     c_bands:  1 eigenvalues not converged
     c_bands:  3 eigenvalues not converged
     c_bands:  2 eigenvalues not converged
     c_bands:  5 eigenvalues not converged
     c_bands:  2 eigenvalues not converged
     c_bands:  1 eigenvalues not converged
     c_bands:  1 eigenvalues not converged
     c_bands:  1 eigenvalues not converged
     c_bands:  1 eigenvalues not converged
     c_bands:  3 eigenvalues not converged
     c_bands:  2 eigenvalues not converged
     c_bands:  2 eigenvalues not converged
     c_bands:  2 eigenvalues not converged
     c_bands:  3 eigenvalues not converged
     c_bands:  3 eigenvalues not converged
     c_bands:  3 eigenvalues not converged
     c_bands:  2 eigenvalues not converged
     c_bands:  2 eigenvalues not converged
     c_bands:  3 eigenvalues not converged
     c_bands:  4 eigenvalues not converged
     c_bands:  5 eigenvalues not converged
     c_bands:  3 eigenvalues not converged
     c_bands:  2 eigenvalues not converged
     c_bands:  1 eigenvalues not converged
     c_bands:  2 eigenvalues not converged
     c_bands:  2 eigenvalues not converged
     c_bands:  4 eigenvalues not converged
     c_bands:  3 eigenvalues not converged
     c_bands:  2 eigenvalues not converged
     c_bands:  3 eigenvalues not converged
     c_bands:  3 eigenvalues not converged
     c_bands:  3 eigenvalues not converged
     c_bands:  1 eigenvalues not converged
     c_bands:  3 eigenvalues not converged
     c_bands:  2 eigenvalues not converged
     c_bands:  2 eigenvalues not converged
     c_bands:  1 eigenvalues not converged
     c_bands:  2 eigenvalues not converged
     c_bands:  2 eigenvalues not converged
     c_bands:  2 eigenvalues not converged
     c_bands:  1 eigenvalues not converged
     c_bands:  3 eigenvalues not converged
     c_bands:  3 eigenvalues not converged
     c_bands:  2 eigenvalues not converged
     c_bands:  2 eigenvalues not converged
     c_bands:  4 eigenvalues not converged
     c_bands:  2 eigenvalues not converged
     c_bands:  2 eigenvalues not converged
     c_bands:  2 eigenvalues not converged
     c_bands:  1 eigenvalues not converged
     c_bands:  1 eigenvalues not converged
     c_bands:  1 eigenvalues not converged
     c_bands:  5 eigenvalues not converged
     c_bands:  2 eigenvalues not converged
     c_bands:  2 eigenvalues not converged
     c_bands:  1 eigenvalues not converged
     c_bands:  3 eigenvalues not converged
     c_bands:  2 eigenvalues not converged
     c_bands:  2 eigenvalues not converged
     c_bands:  1 eigenvalues not converged
     c_bands:  5 eigenvalues not converged
     c_bands:  1 eigenvalues not converged
     c_bands:  2 eigenvalues not converged
     c_bands:  2 eigenvalues not converged
     c_bands:  2 eigenvalues not converged
     c_bands:  1 eigenvalues not converged
     c_bands:  2 eigenvalues not converged
     c_bands:  1 eigenvalues not converged
     c_bands:  2 eigenvalues not converged
     ethr =  1.00E-02,  avg # of iterations = 14.8

     total cpu time spent up to now is      343.2 secs

     total energy              =    -602.47446235 Ry
     Harris-Foulkes estimate   =   -1392.85942278 Ry
     estimated scf accuracy    <    1521.33480407 Ry

     iteration #  3     ecut=    40.00 Ry     beta=0.70
     CG style diagonalization
     ethr =  1.00E-02,  avg # of iterations = 13.1

     total cpu time spent up to now is      472.3 secs

     total energy              =    -956.36421545 Ry
     Harris-Foulkes estimate   =   -1005.77900042 Ry
     estimated scf accuracy    <     108.02163977 Ry

     iteration #  4     ecut=    40.00 Ry     beta=0.70
     CG style diagonalization
     ethr =  1.00E-02,  avg # of iterations =  6.3

     total cpu time spent up to now is      534.1 secs

     total energy              =    -972.89142170 Ry
     Harris-Foulkes estimate   =    -976.47084049 Ry
     estimated scf accuracy    <       7.14211274 Ry

     iteration #  5     ecut=    40.00 Ry     beta=0.70
     CG style diagonalization
     ethr =  9.92E-03,  avg # of iterations =  4.0

     total cpu time spent up to now is      573.8 secs

     total energy              =    -973.51213622 Ry
     Harris-Foulkes estimate   =    -974.99589566 Ry
     estimated scf accuracy    <       3.29342389 Ry

     iteration #  6     ecut=    40.00 Ry     beta=0.70
     CG style diagonalization
     ethr =  4.57E-03,  avg # of iterations =  3.6

     total cpu time spent up to now is      610.4 secs

     total energy              =    -974.00765163 Ry
     Harris-Foulkes estimate   =    -974.06613215 Ry
     estimated scf accuracy    <       0.12237758 Ry

     iteration #  7     ecut=    40.00 Ry     beta=0.70
     CG style diagonalization
     c_bands:  1 eigenvalues not converged
     c_bands:  1 eigenvalues not converged
     c_bands:  2 eigenvalues not converged
     c_bands:  1 eigenvalues not converged
     c_bands:  1 eigenvalues not converged
     c_bands:  1 eigenvalues not converged
     c_bands:  2 eigenvalues not converged
     c_bands:  2 eigenvalues not converged
     c_bands:  1 eigenvalues not converged
     c_bands:  2 eigenvalues not converged
     c_bands:  2 eigenvalues not converged
     c_bands:  1 eigenvalues not converged
     c_bands:  2 eigenvalues not converged
     c_bands:  1 eigenvalues not converged
     c_bands:  1 eigenvalues not converged
     c_bands:  1 eigenvalues not converged
     c_bands:  1 eigenvalues not converged
     c_bands:  2 eigenvalues not converged
     c_bands:  1 eigenvalues not converged
     c_bands:  2 eigenvalues not converged
     ethr =  1.70E-04,  avg # of iterations =  5.9

     total cpu time spent up to now is      670.8 secs

     total energy              =    -974.11114158 Ry
     Harris-Foulkes estimate   =    -974.12209865 Ry
     estimated scf accuracy    <       0.03095719 Ry

     iteration #  8     ecut=    40.00 Ry     beta=0.70
     CG style diagonalization
     c_bands:  1 eigenvalues not converged
     c_bands:  1 eigenvalues not converged
     c_bands:  2 eigenvalues not converged
     c_bands:  1 eigenvalues not converged
     ethr =  4.30E-05,  avg # of iterations =  3.7

     total cpu time spent up to now is      707.6 secs

     total energy              =    -974.11258305 Ry
     Harris-Foulkes estimate   =    -974.11501057 Ry
     estimated scf accuracy    <       0.00568720 Ry

     iteration #  9     ecut=    40.00 Ry     beta=0.70
     CG style diagonalization
     c_bands:  1 eigenvalues not converged
     c_bands:  1 eigenvalues not converged
     c_bands:  1 eigenvalues not converged
     c_bands:  1 eigenvalues not converged
     c_bands:  1 eigenvalues not converged
     ethr =  7.90E-06,  avg # of iterations =  4.4

     total cpu time spent up to now is      752.0 secs

     total energy              =    -974.11433998 Ry
     Harris-Foulkes estimate   =    -974.11444784 Ry
     estimated scf accuracy    <       0.00022040 Ry

     iteration # 10     ecut=    40.00 Ry     beta=0.70
     CG style diagonalization
     c_bands:  1 eigenvalues not converged
     c_bands:  1 eigenvalues not converged
     c_bands:  1 eigenvalues not converged
     c_bands:  1 eigenvalues not converged
     c_bands:  1 eigenvalues not converged
     c_bands:  1 eigenvalues not converged
     c_bands:  1 eigenvalues not converged
     c_bands:  1 eigenvalues not converged
     c_bands:  1 eigenvalues not converged
     c_bands:  1 eigenvalues not converged
     c_bands:  1 eigenvalues not converged
     c_bands:  1 eigenvalues not converged
     ethr =  3.06E-07,  avg # of iterations =  5.6

     total cpu time spent up to now is      807.7 secs

     End of self-consistent calculation

     Number of k-points >= 100: set verbosity='high' to print the bands.

     the Fermi energy is    11.1585 ev

!    total energy              =    -974.11451862 Ry
     Harris-Foulkes estimate   =    -974.11455460 Ry
     estimated scf accuracy    <       0.00004714 Ry

     The total energy is the sum of the following terms:

     one-electron contribution =    -568.35642427 Ry
     hartree contribution      =     278.03597562 Ry
     xc contribution           =     -82.06565556 Ry
     ewald contribution        =    -601.42612774 Ry
     smearing contrib. (-TS)   =      -0.30228668 Ry

     convergence has been achieved in  10 iterations

     Forces acting on atoms (Ry/au):

     atom    1 type  1   force =     0.00477297   -0.00190655    0.00316398
     atom    2 type  1   force =    -0.00477297    0.00190655   -0.00316398
     atom    3 type  2   force =     0.01904751   -0.00728397    0.00752068
     atom    4 type  2   force =    -0.01904751    0.00728397   -0.00752068

     Total force =     0.031901     Total SCF correction =     0.000000


     entering subroutine stress ...

          total   stress  (Ry/bohr**3)                   (kbar)     P= -354.17
  -0.00234926  -0.00004109  -0.00000039       -345.59     -6.04     -0.06
  -0.00004109  -0.00245067  -0.00000017         -6.04   -360.51     -0.03
  -0.00000039  -0.00000017  -0.00242290         -0.06     -0.03   -356.42


     BFGS Geometry Optimization

     number of scf cycles    =   1
     number of bfgs steps    =   0

     enthalpy new            =    -974.1145186215 Ry

     new trust radius        =       0.4127052834 bohr
     new conv_thr            =       0.0001000000 Ry

     new unit-cell volume =    941.38674 a.u.^3 (   139.49912 Ang^3 )

CELL_PARAMETERS (alat= 13.39297219)
   0.941268400  -0.001027317  -0.000009693
  -0.731364347   0.592528451   0.000004827
  -0.000007259  -0.000003206   0.703558060

ATOMIC_POSITIONS (crystal)
Tl       0.386194061   0.613761166   0.750315443
Tl       0.613805939   0.386238834   0.249684557
I        0.133336402   0.866553202   0.750749797
I        0.866663598   0.133446798   0.249250203



     Writing output data file Prototype-La-oS8-TlI.save
     NEW-OLD atomic charge density approx. for the potential
     NEW k-points: (use verbosity='high' to print them)

     total cpu time spent up to now is      814.6 secs

     Self-consistent Calculation

     iteration #  1     ecut=    40.00 Ry     beta=0.70
     CG style diagonalization
     c_bands:  5 eigenvalues not converged
     c_bands:  1 eigenvalues not converged
     c_bands:  1 eigenvalues not converged
     c_bands:  2 eigenvalues not converged
     c_bands:  1 eigenvalues not converged
     c_bands:  1 eigenvalues not converged
     c_bands:  1 eigenvalues not converged
     c_bands:  1 eigenvalues not converged
     c_bands:  1 eigenvalues not converged
     c_bands:  1 eigenvalues not converged
     c_bands:  1 eigenvalues not converged
     c_bands:  1 eigenvalues not converged
     c_bands:  1 eigenvalues not converged
     c_bands:  1 eigenvalues not converged
     ethr =  1.00E-06,  avg # of iterations = 22.1

     total cpu time spent up to now is     1022.4 secs

     total energy              =    -970.66391109 Ry
     Harris-Foulkes estimate   =    -978.68386146 Ry
     estimated scf accuracy    <       9.75031813 Ry

     iteration #  2     ecut=    40.00 Ry     beta=0.70
     CG style diagonalization
     ethr =  1.00E-02,  avg # of iterations =  4.2

     total cpu time spent up to now is     1063.1 secs

     total energy              =    -973.48942767 Ry
     Harris-Foulkes estimate   =    -975.87852090 Ry
     estimated scf accuracy    <       3.71810381 Ry

     iteration #  3     ecut=    40.00 Ry     beta=0.70
     CG style diagonalization
     ethr =  5.16E-03,  avg # of iterations =  3.8

     total cpu time spent up to now is     1100.4 secs

     total energy              =    -974.35856451 Ry
     Harris-Foulkes estimate   =    -974.56326976 Ry
     estimated scf accuracy    <       0.37309045 Ry

     iteration #  4     ecut=    40.00 Ry     beta=0.70
     CG style diagonalization
     ethr =  5.18E-04,  avg # of iterations =  3.9

     total cpu time spent up to now is     1139.1 secs

     total energy              =    -974.48214363 Ry
     Harris-Foulkes estimate   =    -974.52354136 Ry
     estimated scf accuracy    <       0.09480451 Ry

     iteration #  5     ecut=    40.00 Ry     beta=0.70
     CG style diagonalization
     ethr =  1.32E-04,  avg # of iterations =  3.5

     total cpu time spent up to now is     1173.0 secs

     total energy              =    -974.50059253 Ry
     Harris-Foulkes estimate   =    -974.50146370 Ry
     estimated scf accuracy    <       0.00141891 Ry

     iteration #  6     ecut=    40.00 Ry     beta=0.70
     CG style diagonalization
     c_bands:  1 eigenvalues not converged
     c_bands:  1 eigenvalues not converged
     c_bands:  1 eigenvalues not converged
     c_bands:  1 eigenvalues not converged
     c_bands:  1 eigenvalues not converged
     c_bands:  1 eigenvalues not converged
     c_bands:  1 eigenvalues not converged
     c_bands:  1 eigenvalues not converged
     c_bands:  1 eigenvalues not converged
     c_bands:  1 eigenvalues not converged
     c_bands:  1 eigenvalues not converged
     ethr =  1.97E-06,  avg # of iterations =  5.9

     total cpu time spent up to now is     1229.7 secs

     total energy              =    -974.50195420 Ry
     Harris-Foulkes estimate   =    -974.50251687 Ry
     estimated scf accuracy    <       0.00137333 Ry

     iteration #  7     ecut=    40.00 Ry     beta=0.70
     CG style diagonalization
     ethr =  1.91E-06,  avg # of iterations =  3.4

     total cpu time spent up to now is     1262.1 secs

     total energy              =    -974.50198903 Ry
     Harris-Foulkes estimate   =    -974.50209965 Ry
     estimated scf accuracy    <       0.00020085 Ry

     iteration #  8     ecut=    40.00 Ry     beta=0.70
     CG style diagonalization
     c_bands:  1 eigenvalues not converged
     ethr =  2.79E-07,  avg # of iterations =  4.4

     total cpu time spent up to now is     1306.8 secs

     End of self-consistent calculation

     Number of k-points >= 100: set verbosity='high' to print the bands.

     the Fermi energy is    14.2273 ev

!    total energy              =    -974.50205067 Ry
     Harris-Foulkes estimate   =    -974.50208981 Ry
     estimated scf accuracy    <       0.00004328 Ry

     The total energy is the sum of the following terms:

     one-electron contribution =    -506.97424105 Ry
     hartree contribution      =     255.28446156 Ry
     xc contribution           =     -82.63216926 Ry
     ewald contribution        =    -639.92304473 Ry
     smearing contrib. (-TS)   =      -0.25705720 Ry

     convergence has been achieved in   8 iterations

     Forces acting on atoms (Ry/au):

     atom    1 type  1   force =     0.04298119   -0.01523472    0.00713209
     atom    2 type  1   force =    -0.04298119    0.01523472   -0.00713209
     atom    3 type  2   force =    -0.08029046    0.02878066    0.02727878
     atom    4 type  2   force =     0.08029046   -0.02878066   -0.02727878

     Total force =     0.142474     Total SCF correction =     0.000000


     entering subroutine stress ...

          total   stress  (Ry/bohr**3)                   (kbar)     P= -231.68
  -0.00150537  -0.00007703  -0.00000049       -221.45    -11.33     -0.07
  -0.00007703  -0.00169479   0.00000026        -11.33   -249.31      0.04
  -0.00000049   0.00000026  -0.00152455         -0.07      0.04   -224.27


     number of scf cycles    =   2
     number of bfgs steps    =   1

     enthalpy old            =    -974.1145186215 Ry
     enthalpy new            =    -974.5020506658 Ry

     CASE: enthalpy_new < enthalpy_old

     small trust_radius: resetting bfgs history

     new trust radius        =       0.2602660280 bohr
     new conv_thr            =       0.0000802905 Ry

     new unit-cell volume =    834.50336 a.u.^3 (   123.66064 Ang^3 )

CELL_PARAMETERS (alat= 13.39297219)
   0.905846391  -0.002796530  -0.000020858
  -0.704981074   0.568831702   0.000017486
  -0.000015596   0.000001559   0.676742867

ATOMIC_POSITIONS (crystal)
Tl       0.388114480   0.611844733   0.751072385
Tl       0.611885520   0.388155267   0.248927615
I        0.129780574   0.870173776   0.753644720
I        0.870219426   0.129826224   0.246355280



     Writing output data file Prototype-La-oS8-TlI.save
     NEW-OLD atomic charge density approx. for the potential
     NEW k-points: (use verbosity='high' to print them)

     total cpu time spent up to now is     1315.4 secs

     Self-consistent Calculation

     iteration #  1     ecut=    40.00 Ry     beta=0.70
     CG style diagonalization
     c_bands:  2 eigenvalues not converged
     c_bands:  1 eigenvalues not converged
     c_bands:  1 eigenvalues not converged
     c_bands:  2 eigenvalues not converged
     c_bands:  1 eigenvalues not converged
     c_bands:  1 eigenvalues not converged
     c_bands:  1 eigenvalues not converged
     c_bands:  1 eigenvalues not converged
     c_bands:  1 eigenvalues not converged
     c_bands:  4 eigenvalues not converged
     c_bands:  1 eigenvalues not converged
     c_bands:  1 eigenvalues not converged
     c_bands:  1 eigenvalues not converged
     c_bands:  1 eigenvalues not converged
     c_bands:  1 eigenvalues not converged
     c_bands:  1 eigenvalues not converged
     c_bands:  1 eigenvalues not converged
     c_bands:  1 eigenvalues not converged
     c_bands:  1 eigenvalues not converged
     c_bands:  1 eigenvalues not converged
     c_bands:  2 eigenvalues not converged
     c_bands:  1 eigenvalues not converged
     c_bands:  1 eigenvalues not converged
     c_bands:  1 eigenvalues not converged
     c_bands:  1 eigenvalues not converged
     c_bands:  1 eigenvalues not converged
     c_bands:  1 eigenvalues not converged
     c_bands:  1 eigenvalues not converged
     c_bands:  2 eigenvalues not converged
     c_bands:  1 eigenvalues not converged
     c_bands:  1 eigenvalues not converged
     ethr =  1.00E-06,  avg # of iterations = 25.5

     total cpu time spent up to now is     1555.9 secs

     total energy              =    -961.64306884 Ry
     Harris-Foulkes estimate   =    -980.77529304 Ry
     estimated scf accuracy    <      22.71023670 Ry

     iteration #  2     ecut=    40.00 Ry     beta=0.70
     CG style diagonalization
     ethr =  1.00E-02,  avg # of iterations =  6.5

     total cpu time spent up to now is     1619.7 secs

     total energy              =    -964.35655989 Ry
     Harris-Foulkes estimate   =    -989.15238658 Ry
     estimated scf accuracy    <      57.78986212 Ry

     iteration #  3     ecut=    40.00 Ry     beta=0.70
     CG style diagonalization
     ethr =  1.00E-02,  avg # of iterations =  5.1

     total cpu time spent up to now is     1670.3 secs

     total energy              =    -974.27264209 Ry
     Harris-Foulkes estimate   =    -974.62011674 Ry
     estimated scf accuracy    <       0.60466892 Ry

     iteration #  4     ecut=    40.00 Ry     beta=0.70
     CG style diagonalization
     ethr =  8.40E-04,  avg # of iterations =  4.7

     total cpu time spent up to now is     1716.9 secs

     total energy              =    -974.60362695 Ry
     Harris-Foulkes estimate   =    -974.63602297 Ry
     estimated scf accuracy    <       0.05522229 Ry

     iteration #  5     ecut=    40.00 Ry     beta=0.70
     CG style diagonalization
     c_bands:  1 eigenvalues not converged
     c_bands:  1 eigenvalues not converged
     c_bands:  1 eigenvalues not converged
     ethr =  7.67E-05,  avg # of iterations =  5.2

     total cpu time spent up to now is     1767.4 secs

     total energy              =    -974.63641755 Ry
     Harris-Foulkes estimate   =    -974.64076101 Ry
     estimated scf accuracy    <       0.00910493 Ry

     iteration #  6     ecut=    40.00 Ry     beta=0.70
     CG style diagonalization
     c_bands:  1 eigenvalues not converged
     c_bands:  1 eigenvalues not converged
     ethr =  1.26E-05,  avg # of iterations =  4.5

     total cpu time spent up to now is     1812.4 secs

     total energy              =    -974.63985588 Ry
     Harris-Foulkes estimate   =    -974.64012976 Ry
     estimated scf accuracy    <       0.00051683 Ry

     iteration #  7     ecut=    40.00 Ry     beta=0.70
     CG style diagonalization
     c_bands:  1 eigenvalues not converged
     c_bands:  1 eigenvalues not converged
     c_bands:  1 eigenvalues not converged
     ethr =  7.18E-07,  avg # of iterations =  5.5

     total cpu time spent up to now is     1867.2 secs

     total energy              =    -974.64018944 Ry
     Harris-Foulkes estimate   =    -974.64031950 Ry
     estimated scf accuracy    <       0.00027884 Ry

     iteration #  8     ecut=    40.00 Ry     beta=0.70
     CG style diagonalization
     ethr =  3.87E-07,  avg # of iterations =  3.8

     total cpu time spent up to now is     1904.7 secs

     End of self-consistent calculation

     Number of k-points >= 100: set verbosity='high' to print the bands.

     the Fermi energy is    16.4851 ev

!    total energy              =    -974.64025537 Ry
     Harris-Foulkes estimate   =    -974.64025742 Ry
     estimated scf accuracy    <       0.00000370 Ry

     The total energy is the sum of the following terms:

     one-electron contribution =    -465.40597059 Ry
     hartree contribution      =     240.43240038 Ry
     xc contribution           =     -83.06073222 Ry
     ewald contribution        =    -666.37671359 Ry
     smearing contrib. (-TS)   =      -0.22923934 Ry

     convergence has been achieved in   8 iterations

     Forces acting on atoms (Ry/au):

     atom    1 type  1   force =     0.03851613   -0.01368279   -0.00644470
     atom    2 type  1   force =    -0.03851613    0.01368279    0.00644470
     atom    3 type  2   force =    -0.03486737    0.01253468   -0.00931748
     atom    4 type  2   force =     0.03486737   -0.01253468    0.00931748

     Total force =     0.079648     Total SCF correction =     0.000000


     entering subroutine stress ...

          total   stress  (Ry/bohr**3)                   (kbar)     P= -117.07
  -0.00087003  -0.00003470  -0.00000829       -127.99     -5.10     -1.22
  -0.00003470  -0.00095506   0.00000358         -5.10   -140.49      0.53
  -0.00000829   0.00000358  -0.00056239         -1.22      0.53    -82.73


     number of scf cycles    =   3
     number of bfgs steps    =   2

     enthalpy old            =    -974.5020506658 Ry
     enthalpy new            =    -974.6402553668 Ry

     CASE: enthalpy_new < enthalpy_old

     Message from routine bfgs:
     history already reset at previous step: stopping
     small trust_radius: resetting bfgs history

     new trust radius        =       0.1380400380 bohr
     new conv_thr            =       0.0000385161 Ry

     new unit-cell volume =    785.65629 a.u.^3 (   116.42225 Ang^3 )

CELL_PARAMETERS (alat= 13.39297219)
   0.886146017  -0.003515509  -0.000208586
  -0.690140653   0.555861478   0.000214296
  -0.000155539   0.000062118   0.667228009

ATOMIC_POSITIONS (crystal)
Tl       0.389898282   0.610057474   0.750361433
Tl       0.610101718   0.389942526   0.249638567
I        0.128180919   0.871811243   0.752616616
I        0.871819081   0.128188757   0.247383384



     Writing output data file Prototype-La-oS8-TlI.save
     NEW-OLD atomic charge density approx. for the potential
     NEW k-points: (use verbosity='high' to print them)

     total cpu time spent up to now is     1911.5 secs

     Self-consistent Calculation

     iteration #  1     ecut=    40.00 Ry     beta=0.70
     CG style diagonalization
     c_bands:  4 eigenvalues not converged
     c_bands:  1 eigenvalues not converged
     c_bands:  1 eigenvalues not converged
     ethr =  1.00E-06,  avg # of iterations = 21.4

     total cpu time spent up to now is     2116.3 secs

     total energy              =    -971.42306935 Ry
     Harris-Foulkes estimate   =    -976.15284509 Ry
     estimated scf accuracy    <       5.60871413 Ry

     iteration #  2     ecut=    40.00 Ry     beta=0.70
     CG style diagonalization
     ethr =  7.79E-03,  avg # of iterations =  4.7

     total cpu time spent up to now is     2162.2 secs

     total energy              =    -971.65282399 Ry
     Harris-Foulkes estimate   =    -978.44836708 Ry
     estimated scf accuracy    <      16.43013105 Ry

     iteration #  3     ecut=    40.00 Ry     beta=0.70
     CG style diagonalization
     ethr =  7.79E-03,  avg # of iterations =  4.1

     total cpu time spent up to now is     2202.7 secs

     total energy              =    -974.45290826 Ry
     Harris-Foulkes estimate   =    -974.54173108 Ry
     estimated scf accuracy    <       0.15761799 Ry

     iteration #  4     ecut=    40.00 Ry     beta=0.70
     CG style diagonalization
     ethr =  2.19E-04,  avg # of iterations =  5.1

     total cpu time spent up to now is     2254.4 secs

     total energy              =    -974.67040266 Ry
     Harris-Foulkes estimate   =    -974.68600652 Ry
     estimated scf accuracy    <       0.03451885 Ry

     iteration #  5     ecut=    40.00 Ry     beta=0.70
     CG style diagonalization
     ethr =  4.79E-05,  avg # of iterations =  3.8

     total cpu time spent up to now is     2292.8 secs

     total energy              =    -974.67128123 Ry
     Harris-Foulkes estimate   =    -974.67591534 Ry
     estimated scf accuracy    <       0.01060893 Ry

     iteration #  6     ecut=    40.00 Ry     beta=0.70
     CG style diagonalization
     ethr =  1.47E-05,  avg # of iterations =  4.3

     total cpu time spent up to now is     2334.9 secs

     total energy              =    -974.67441708 Ry
     Harris-Foulkes estimate   =    -974.67494758 Ry
     estimated scf accuracy    <       0.00102769 Ry

     iteration #  7     ecut=    40.00 Ry     beta=0.70
     CG style diagonalization
     c_bands:  1 eigenvalues not converged
     c_bands:  1 eigenvalues not converged
     c_bands:  1 eigenvalues not converged
     ethr =  1.43E-06,  avg # of iterations =  5.4

     total cpu time spent up to now is     2387.7 secs

     total energy              =    -974.67508139 Ry
     Harris-Foulkes estimate   =    -974.67512702 Ry
     estimated scf accuracy    <       0.00010293 Ry

     iteration #  8     ecut=    40.00 Ry     beta=0.70
     CG style diagonalization
     c_bands:  1 eigenvalues not converged
     ethr =  1.43E-07,  avg # of iterations =  4.7

     total cpu time spent up to now is     2433.8 secs

     End of self-consistent calculation

     Number of k-points >= 100: set verbosity='high' to print the bands.

     the Fermi energy is    17.6958 ev

!    total energy              =    -974.67510995 Ry
     Harris-Foulkes estimate   =    -974.67513832 Ry
     estimated scf accuracy    <       0.00003250 Ry

     The total energy is the sum of the following terms:

     one-electron contribution =    -444.44251113 Ry
     hartree contribution      =     233.15312013 Ry
     xc contribution           =     -83.29746556 Ry
     ewald contribution        =    -679.87314426 Ry
     smearing contrib. (-TS)   =      -0.21510914 Ry

     convergence has been achieved in   8 iterations

     Forces acting on atoms (Ry/au):

     atom    1 type  1   force =     0.03263681   -0.01153696   -0.00844151
     atom    2 type  1   force =    -0.03263681    0.01153696    0.00844151
     atom    3 type  2   force =     0.02440077   -0.00858190   -0.01043410
     atom    4 type  2   force =    -0.02440077    0.00858190    0.01043410

     Total force =     0.063991     Total SCF correction =     0.000000


     entering subroutine stress ...

          total   stress  (Ry/bohr**3)                   (kbar)     P=  -48.23
  -0.00047216  -0.00002010  -0.00000991        -69.46     -2.96     -1.46
  -0.00002010  -0.00052092   0.00000332         -2.96    -76.63      0.49
  -0.00000991   0.00000332   0.00000954         -1.46      0.49      1.40


     The maximum number of steps has been reached.

     End of BFGS Geometry Optimization
Begin final coordinates
     new unit-cell volume =    785.65629 a.u.^3 (   116.42225 Ang^3 )

CELL_PARAMETERS (alat= 13.39297219)
   0.886146017  -0.003515509  -0.000208586
  -0.690140653   0.555861478   0.000214296
  -0.000155539   0.000062118   0.667228009

ATOMIC_POSITIONS (crystal)
Tl       0.389898282   0.610057474   0.750361433
Tl       0.610101718   0.389942526   0.249638567
I        0.128180919   0.871811243   0.752616616
I        0.871819081   0.128188757   0.247383384
End final coordinates



     A final scf calculation at the relaxed structure.
     The G-vectors are recalculated for the final unit cell
     Results may differ from those at the preceding step.
 
     Parallelization info
     --------------------
     sticks:   dense  smooth     PW     G-vecs:    dense   smooth      PW
     Min         278     278     84                 6695     6695    1125
     Max         281     281     86                 6696     6696    1126
     Sum        1115    1115    341                26781    26781    4503
 


     bravais-lattice index     =            0
     lattice parameter (alat)  =      13.3930  a.u.
     unit-cell volume          =     785.6563 (a.u.)^3
     number of atoms/cell      =            4
     number of atomic types    =            2
     number of electrons       =        72.00
     number of Kohn-Sham states=           43
     kinetic-energy cutoff     =      40.0000  Ry
     charge density cutoff     =     160.0000  Ry
     convergence threshold     =      3.9E-05
     mixing beta               =       0.7000
     number of iterations used =            8  plain     mixing
     Exchange-correlation      = SLA-PZ-NOGX-NOGC ( 1 1 0 0 0)
     EXX-fraction              =        0.00

     celldm(1)=  13.392972  celldm(2)=   0.000000  celldm(3)=   0.000000
     celldm(4)=   0.000000  celldm(5)=   0.000000  celldm(6)=   0.000000

     crystal axes: (cart. coord. in units of alat)
               a(1) = (   0.886146  -0.003516  -0.000209 )  
               a(2) = (  -0.690141   0.555861   0.000214 )  
               a(3) = (  -0.000156   0.000062   0.667228 )  

     reciprocal axes: (cart. coord. in units 2 pi/alat)
               b(1) = (  1.134068  1.408024  0.000133 )  
               b(2) = (  0.007172  1.807914 -0.000167 )  
               b(3) = (  0.000352 -0.000140  1.498738 )  


     PseudoPot. # 1 for Ce read from file:
     /home/jld5415/pp.La/Ce.UPF
     MD5 check sum: 44451aa79a44a00cf2bc029dc19922f6
     Pseudo is Norm-conserving, Zval = 12.0
     Generated in analytical, separable form
     Using radial grid of 1255 points,  6 beta functions with: 
                l(1) =   0
                l(2) =   0
                l(3) =   1
                l(4) =   1
                l(5) =   2
                l(6) =   3

     PseudoPot. # 2 for Yb read from file:
     /home/jld5415/pp.La/Yb.UPF
     MD5 check sum: 3e859b81cc28c53ec6aa3a2e888efcdf
     Pseudo is Norm-conserving, Zval = 24.0
     Generated in analytical, separable form
     Using radial grid of 1269 points,  6 beta functions with: 
                l(1) =   0
                l(2) =   0
                l(3) =   1
                l(4) =   1
                l(5) =   2
                l(6) =   3

     atomic species   valence    mass     pseudopotential
        Tl            12.00   204.38300     Ce( 1.00)
        I             24.00   126.90400     Yb( 1.00)

      2 Sym. Ops., with inversion, found
          (note:  2 additional sym.ops. were found but ignored
           their fractional translations are incommensurate with FFT grid)


   Cartesian axes

     site n.     atom                  positions (alat units)
         1           Tl  tau(   1) = (  -0.0756354   0.3377834   0.5007116  )
         2           Tl  tau(   2) = (   0.2714852   0.2146247   0.1665221  )
         3           I   tau(   3) = (  -0.4882024   0.4842024   0.5023270  )
         4           I   tau(   4) = (   0.6840523   0.0682057   0.1649067  )

     number of k points=   106  gaussian smearing, width (Ry)=  0.1000

     Number of k-points >= 100: set verbosity='high' to print them.

     Dense  grid:    26781 G-vectors     FFT dimensions: (  48,  48,  36)

     Largest allocated arrays     est. size (Mb)     dimensions
        Kohn-Sham Wavefunctions         0.56 Mb     (    857,   43)
        NL pseudopotentials             1.05 Mb     (    857,   80)
        Each V/rho on FFT grid          0.32 Mb     (  20736)
        Each G-vector array             0.05 Mb     (   6696)
        G-vector shells                 0.05 Mb     (   6278)
     Largest temporary arrays     est. size (Mb)     dimensions
        Each subspace H/S matrix        0.03 Mb     (  43,  43)
        Each <psi_i|beta_j> matrix      0.05 Mb     (     80,   43)
        Arrays for rho mixing           2.53 Mb     (  20736,   8)

     Initial potential from superposition of free atoms

     Starting from uniform charge
     Starting wfc are    0 randomized atomic wfcs

     Writing output data file Prototype-La-oS8-TlI.save

     total cpu time spent up to now is     2444.7 secs

     Self-consistent Calculation

     iteration #  1     ecut=    40.00 Ry     beta=0.70
     CG style diagonalization
     c_bands:  3 eigenvalues not converged
     c_bands:  2 eigenvalues not converged
     c_bands:  3 eigenvalues not converged
     c_bands:  3 eigenvalues not converged
     c_bands:  3 eigenvalues not converged
     c_bands:  3 eigenvalues not converged
     c_bands:  3 eigenvalues not converged
     c_bands:  3 eigenvalues not converged
     c_bands:  3 eigenvalues not converged
     c_bands:  3 eigenvalues not converged
     c_bands:  3 eigenvalues not converged
     c_bands:  3 eigenvalues not converged
     c_bands:  3 eigenvalues not converged
     c_bands:  3 eigenvalues not converged
     c_bands:  3 eigenvalues not converged
     c_bands:  3 eigenvalues not converged
     c_bands:  3 eigenvalues not converged
     c_bands:  3 eigenvalues not converged
     c_bands:  3 eigenvalues not converged
     c_bands:  3 eigenvalues not converged
     c_bands:  3 eigenvalues not converged
     c_bands:  3 eigenvalues not converged
     c_bands:  3 eigenvalues not converged
     c_bands:  2 eigenvalues not converged
     c_bands:  3 eigenvalues not converged
     c_bands:  3 eigenvalues not converged
     c_bands:  3 eigenvalues not converged
     c_bands:  3 eigenvalues not converged
     c_bands:  3 eigenvalues not converged
     c_bands:  3 eigenvalues not converged
     c_bands:  3 eigenvalues not converged
     c_bands:  3 eigenvalues not converged
     c_bands:  3 eigenvalues not converged
     c_bands:  3 eigenvalues not converged
     c_bands:  3 eigenvalues not converged
     c_bands:  3 eigenvalues not converged
     c_bands:  3 eigenvalues not converged
     c_bands:  3 eigenvalues not converged
     c_bands:  3 eigenvalues not converged
     c_bands:  2 eigenvalues not converged
     c_bands:  3 eigenvalues not converged
     c_bands:  3 eigenvalues not converged
     c_bands:  3 eigenvalues not converged
     c_bands:  3 eigenvalues not converged
     c_bands:  3 eigenvalues not converged
     c_bands:  3 eigenvalues not converged
     c_bands:  3 eigenvalues not converged
     c_bands:  2 eigenvalues not converged
     c_bands:  3 eigenvalues not converged
     c_bands:  3 eigenvalues not converged
     c_bands:  3 eigenvalues not converged
     c_bands:  3 eigenvalues not converged
     c_bands:  3 eigenvalues not converged
     c_bands:  2 eigenvalues not converged
     c_bands:  3 eigenvalues not converged
     c_bands:  3 eigenvalues not converged
     c_bands:  3 eigenvalues not converged
     c_bands:  3 eigenvalues not converged
     c_bands:  3 eigenvalues not converged
     c_bands:  3 eigenvalues not converged
     c_bands:  2 eigenvalues not converged
     c_bands:  3 eigenvalues not converged
     c_bands:  2 eigenvalues not converged
     c_bands:  3 eigenvalues not converged
     c_bands:  3 eigenvalues not converged
     c_bands:  3 eigenvalues not converged
     c_bands:  3 eigenvalues not converged
     c_bands:  3 eigenvalues not converged
     c_bands:  3 eigenvalues not converged
     c_bands:  2 eigenvalues not converged
     c_bands:  3 eigenvalues not converged
     c_bands:  3 eigenvalues not converged
     c_bands:  3 eigenvalues not converged
     c_bands:  3 eigenvalues not converged
     c_bands:  3 eigenvalues not converged
     c_bands:  3 eigenvalues not converged
     c_bands:  3 eigenvalues not converged
     c_bands:  3 eigenvalues not converged
     c_bands:  3 eigenvalues not converged
     c_bands:  3 eigenvalues not converged
     c_bands:  3 eigenvalues not converged
     c_bands:  3 eigenvalues not converged
     c_bands:  3 eigenvalues not converged
     c_bands:  3 eigenvalues not converged
     c_bands:  3 eigenvalues not converged
     c_bands:  5 eigenvalues not converged
     c_bands:  3 eigenvalues not converged
     c_bands:  3 eigenvalues not converged
     c_bands:  3 eigenvalues not converged
     c_bands:  3 eigenvalues not converged
     c_bands:  3 eigenvalues not converged
     c_bands:  3 eigenvalues not converged
     c_bands:  4 eigenvalues not converged
     c_bands:  3 eigenvalues not converged
     c_bands:  3 eigenvalues not converged
     c_bands:  3 eigenvalues not converged
     c_bands:  3 eigenvalues not converged
     c_bands:  3 eigenvalues not converged
     c_bands:  3 eigenvalues not converged
     c_bands:  3 eigenvalues not converged
     c_bands:  3 eigenvalues not converged
     c_bands:  3 eigenvalues not converged
     c_bands:  3 eigenvalues not converged
     c_bands:  3 eigenvalues not converged
     c_bands:  3 eigenvalues not converged
     c_bands:  3 eigenvalues not converged
     ethr =  1.00E-06,  avg # of iterations = 43.1

     total cpu time spent up to now is     2649.1 secs

     total energy              =    -501.49548058 Ry
     Harris-Foulkes estimate   =   -1502.63378362 Ry
     estimated scf accuracy    <    1198.34075890 Ry

     iteration #  2     ecut=    40.00 Ry     beta=0.70
     CG style diagonalization
     c_bands:  3 eigenvalues not converged
     c_bands:  1 eigenvalues not converged
     c_bands:  1 eigenvalues not converged
     c_bands:  2 eigenvalues not converged
     c_bands:  1 eigenvalues not converged
     c_bands:  1 eigenvalues not converged
     c_bands:  1 eigenvalues not converged
     c_bands:  2 eigenvalues not converged
     c_bands:  2 eigenvalues not converged
     c_bands:  1 eigenvalues not converged
     c_bands:  4 eigenvalues not converged
     c_bands:  2 eigenvalues not converged
     c_bands:  2 eigenvalues not converged
     c_bands:  2 eigenvalues not converged
     c_bands:  1 eigenvalues not converged
     c_bands:  1 eigenvalues not converged
     c_bands:  2 eigenvalues not converged
     c_bands:  2 eigenvalues not converged
     c_bands:  2 eigenvalues not converged
     c_bands:  1 eigenvalues not converged
     c_bands:  2 eigenvalues not converged
     c_bands:  3 eigenvalues not converged
     c_bands:  1 eigenvalues not converged
     c_bands:  3 eigenvalues not converged
     c_bands:  1 eigenvalues not converged
     c_bands:  2 eigenvalues not converged
     c_bands:  2 eigenvalues not converged
     c_bands:  3 eigenvalues not converged
     c_bands:  1 eigenvalues not converged
     c_bands:  3 eigenvalues not converged
     c_bands:  3 eigenvalues not converged
     c_bands:  1 eigenvalues not converged
     c_bands:  2 eigenvalues not converged
     c_bands:  1 eigenvalues not converged
     c_bands:  2 eigenvalues not converged
     c_bands:  2 eigenvalues not converged
     c_bands:  1 eigenvalues not converged
     c_bands:  2 eigenvalues not converged
     c_bands:  1 eigenvalues not converged
     c_bands:  2 eigenvalues not converged
     c_bands:  3 eigenvalues not converged
     c_bands:  2 eigenvalues not converged
     c_bands:  1 eigenvalues not converged
     c_bands:  4 eigenvalues not converged
     c_bands:  1 eigenvalues not converged
     c_bands:  2 eigenvalues not converged
     c_bands:  2 eigenvalues not converged
     c_bands:  3 eigenvalues not converged
     c_bands:  2 eigenvalues not converged
     c_bands:  3 eigenvalues not converged
     c_bands:  4 eigenvalues not converged
     c_bands:  1 eigenvalues not converged
     c_bands:  2 eigenvalues not converged
     c_bands:  2 eigenvalues not converged
     c_bands:  3 eigenvalues not converged
     c_bands:  2 eigenvalues not converged
     c_bands:  3 eigenvalues not converged
     c_bands:  1 eigenvalues not converged
     c_bands:  4 eigenvalues not converged
     c_bands:  2 eigenvalues not converged
     c_bands:  1 eigenvalues not converged
     c_bands:  3 eigenvalues not converged
     c_bands:  3 eigenvalues not converged
     c_bands:  2 eigenvalues not converged
     c_bands:  3 eigenvalues not converged
     c_bands:  2 eigenvalues not converged
     c_bands:  2 eigenvalues not converged
     c_bands:  1 eigenvalues not converged
     c_bands:  2 eigenvalues not converged
     c_bands:  1 eigenvalues not converged
     c_bands:  1 eigenvalues not converged
     c_bands:  1 eigenvalues not converged
     c_bands:  1 eigenvalues not converged
     c_bands:  1 eigenvalues not converged
     c_bands:  1 eigenvalues not converged
     c_bands:  2 eigenvalues not converged
     c_bands:  1 eigenvalues not converged
     c_bands:  2 eigenvalues not converged
     c_bands:  1 eigenvalues not converged
     c_bands:  2 eigenvalues not converged
     c_bands:  2 eigenvalues not converged
     c_bands:  1 eigenvalues not converged
     ethr =  1.00E-02,  avg # of iterations = 14.1

     total cpu time spent up to now is     2715.9 secs

     total energy              =    -630.13773063 Ry
     Harris-Foulkes estimate   =   -1351.04356284 Ry
     estimated scf accuracy    <    1384.37255041 Ry

     iteration #  3     ecut=    40.00 Ry     beta=0.70
     CG style diagonalization
     ethr =  1.00E-02,  avg # of iterations = 12.3

     total cpu time spent up to now is     2774.9 secs

     total energy              =    -964.18321732 Ry
     Harris-Foulkes estimate   =    -999.01681789 Ry
     estimated scf accuracy    <      70.83351493 Ry

     iteration #  4     ecut=    40.00 Ry     beta=0.70
     CG style diagonalization
     ethr =  1.00E-02,  avg # of iterations =  5.6

     total cpu time spent up to now is     2802.2 secs

     total energy              =    -973.50538684 Ry
     Harris-Foulkes estimate   =    -977.14415034 Ry
     estimated scf accuracy    <       9.04583174 Ry

     iteration #  5     ecut=    40.00 Ry     beta=0.70
     CG style diagonalization
     ethr =  1.00E-02,  avg # of iterations =  3.5

     total cpu time spent up to now is     2819.9 secs

     total energy              =    -973.54659127 Ry
     Harris-Foulkes estimate   =    -974.97727108 Ry
     estimated scf accuracy    <       2.37250957 Ry

     iteration #  6     ecut=    40.00 Ry     beta=0.70
     CG style diagonalization
     ethr =  3.30E-03,  avg # of iterations =  4.1

     total cpu time spent up to now is     2840.0 secs

     total energy              =    -974.08776664 Ry
     Harris-Foulkes estimate   =    -974.15484493 Ry
     estimated scf accuracy    <       0.12417672 Ry

     iteration #  7     ecut=    40.00 Ry     beta=0.70
     CG style diagonalization
     c_bands:  1 eigenvalues not converged
     c_bands:  1 eigenvalues not converged
     c_bands:  1 eigenvalues not converged
     ethr =  1.72E-04,  avg # of iterations =  5.0

     total cpu time spent up to now is     2864.4 secs

     total energy              =    -974.15285028 Ry
     Harris-Foulkes estimate   =    -974.16292769 Ry
     estimated scf accuracy    <       0.02178536 Ry

     iteration #  8     ecut=    40.00 Ry     beta=0.70
     CG style diagonalization
     c_bands:  1 eigenvalues not converged
     c_bands:  1 eigenvalues not converged
     c_bands:  1 eigenvalues not converged
     ethr =  3.03E-05,  avg # of iterations =  4.1

     total cpu time spent up to now is     2884.6 secs

     total energy              =    -974.15626140 Ry
     Harris-Foulkes estimate   =    -974.15747989 Ry
     estimated scf accuracy    <       0.00318002 Ry

     iteration #  9     ecut=    40.00 Ry     beta=0.70
     CG style diagonalization
     c_bands:  1 eigenvalues not converged
     c_bands:  1 eigenvalues not converged
     c_bands:  1 eigenvalues not converged
     c_bands:  1 eigenvalues not converged
     c_bands:  1 eigenvalues not converged
     ethr =  4.42E-06,  avg # of iterations =  4.3

     total cpu time spent up to now is     2905.5 secs

     total energy              =    -974.15693989 Ry
     Harris-Foulkes estimate   =    -974.15711580 Ry
     estimated scf accuracy    <       0.00050129 Ry

     iteration # 10     ecut=    40.00 Ry     beta=0.70
     CG style diagonalization
     c_bands:  1 eigenvalues not converged
     c_bands:  1 eigenvalues not converged
     c_bands:  1 eigenvalues not converged
     ethr =  6.96E-07,  avg # of iterations =  4.2

     total cpu time spent up to now is     2926.5 secs

     total energy              =    -974.15702305 Ry
     Harris-Foulkes estimate   =    -974.15709007 Ry
     estimated scf accuracy    <       0.00012026 Ry

     iteration # 11     ecut=    40.00 Ry     beta=0.70
     CG style diagonalization
     ethr =  1.67E-07,  avg # of iterations =  3.9

     total cpu time spent up to now is     2945.8 secs

     End of self-consistent calculation

     Number of k-points >= 100: set verbosity='high' to print the bands.

     the Fermi energy is    17.7305 ev

!    total energy              =    -974.15704611 Ry
     Harris-Foulkes estimate   =    -974.15706260 Ry
     estimated scf accuracy    <       0.00001805 Ry

     The total energy is the sum of the following terms:

     one-electron contribution =    -443.51230040 Ry
     hartree contribution      =     232.65196116 Ry
     xc contribution           =     -83.20973275 Ry
     ewald contribution        =    -679.87314427 Ry
     smearing contrib. (-TS)   =      -0.21382986 Ry

     convergence has been achieved in  11 iterations

     Forces acting on atoms (Ry/au):

     atom    1 type  1   force =     0.03816462   -0.01359284   -0.00703050
     atom    2 type  1   force =    -0.03816462    0.01359284    0.00703050
     atom    3 type  2   force =    -0.03645960    0.01268971   -0.00780118
     atom    4 type  2   force =     0.03645960   -0.01268971    0.00780118

     Total force =     0.080522     Total SCF correction =     0.000000


     entering subroutine stress ...

          total   stress  (Ry/bohr**3)                   (kbar)     P= -269.65
  -0.00198127  -0.00003185  -0.00001034       -291.45     -4.69     -1.52
  -0.00003185  -0.00205846   0.00000361         -4.69   -302.81      0.53
  -0.00001034   0.00000361  -0.00145940         -1.52      0.53   -214.69


     Writing output data file Prototype-La-oS8-TlI.save
 
     init_run     :     10.19s CPU     13.48s WALL (       2 calls)
     electrons    :   2272.78s CPU   2903.69s WALL (       5 calls)
     update_pot   :      2.66s CPU      2.69s WALL (       3 calls)
     forces       :      6.53s CPU      7.17s WALL (       5 calls)
     stress       :     17.72s CPU     19.27s WALL (       5 calls)

     Called by init_run:
     wfcinit      :      9.12s CPU     12.38s WALL (       2 calls)
     potinit      :      0.58s CPU      0.58s WALL (       2 calls)

     Called by electrons:
     c_bands      :   2174.37s CPU   2766.22s WALL (      45 calls)
     sum_band     :     97.83s CPU    130.07s WALL (      45 calls)
     v_of_rho     :      0.13s CPU      0.15s WALL (      50 calls)
     mix_rho      :      0.10s CPU      0.13s WALL (      45 calls)

     Called by c_bands:
     init_us_2    :      6.70s CPU      9.58s WALL (   10812 calls)
     ccgdiagg     :   1932.34s CPU   2439.81s WALL (    5409 calls)
     wfcrot       :    245.08s CPU    326.85s WALL (    5515 calls)

     Called by *cgdiagg:
     h_psi        :   1781.55s CPU   2314.26s WALL ( 1363872 calls)
     cdiaghg      :      4.28s CPU      4.71s WALL (    5515 calls)

     Called by h_psi:
     add_vuspsi   :     83.49s CPU    119.86s WALL ( 1363872 calls)

     General routines
     calbec       :    305.20s CPU    335.92s WALL ( 2723289 calls)
     fft          :      0.28s CPU      0.33s WALL (     223 calls)
     fftw         :   1447.34s CPU   1864.61s WALL ( 3396114 calls)
     davcio       :      3.83s CPU      8.85s WALL (   15582 calls)
 
     Parallel routines
     fft_scatter  :    591.28s CPU    784.04s WALL ( 3396337 calls)
 
     PWSCF        : 38m30.88s CPU    49m 9.65s WALL

 
   This run was terminated on:   1:25:53  22Mar2018            

=------------------------------------------------------------------------------=
   JOB DONE.
=------------------------------------------------------------------------------=
