
     Program PWSCF v.5.0.2 starts on 22Mar2018 at  0:40:56 

     This program is part of the open-source Quantum ESPRESSO suite
     for quantum simulation of materials; please cite
         "P. Giannozzi et al., J. Phys.:Condens. Matter 21 395502 (2009);
          URL http://www.quantum-espresso.org", 
     in publications or presentations arising from this work. More details at
     http://www.quantum-espresso.org/quote.php

     Parallel version (MPI), running on     4 processors
     R & G space division:  proc/nbgrp/npool/nimage =       4

     Current dimensions of program PWSCF are:
     Max number of different atomic species (ntypx) = 10
     Max number of k-points (npk) =  40000
     Max angular momentum in pseudopotentials (lmaxx) =  3
     Waiting for input...
     Reading input from standard input

     Subspace diagonalization in iterative solution of the eigenvalue problem:
     a serial algorithm will be used

 
     Parallelization info
     --------------------
     sticks:   dense  smooth     PW     G-vecs:    dense   smooth      PW
     Min         233     233     69                 5311     5311     851
     Max         234     234     70                 5314     5314     854
     Sum         933     933    277                21247    21247    3407
 


     bravais-lattice index     =            0
     lattice parameter (alat)  =       8.5346  a.u.
     unit-cell volume          =     621.6493 (a.u.)^3
     number of atoms/cell      =            8
     number of atomic types    =            2
     number of electrons       =       120.00
     number of Kohn-Sham states=           72
     kinetic-energy cutoff     =      40.0000  Ry
     charge density cutoff     =     160.0000  Ry
     convergence threshold     =      1.0E-04
     mixing beta               =       0.7000
     number of iterations used =            8  plain     mixing
     Exchange-correlation      = SLA-PZ-NOGX-NOGC ( 1 1 0 0 0)
     EXX-fraction              =        0.00
     nstep                     =           50


     celldm(1)=   8.534573  celldm(2)=   0.000000  celldm(3)=   0.000000
     celldm(4)=   0.000000  celldm(5)=   0.000000  celldm(6)=   0.000000

     crystal axes: (cart. coord. in units of alat)
               a(1) = (   1.000000   0.000000   0.000000 )  
               a(2) = (   0.000000   1.000000   0.000000 )  
               a(3) = (   0.000000   0.000000   1.000000 )  

     reciprocal axes: (cart. coord. in units 2 pi/alat)
               b(1) = (  1.000000  0.000000  0.000000 )  
               b(2) = (  0.000000  1.000000  0.000000 )  
               b(3) = (  0.000000  0.000000  1.000000 )  


     PseudoPot. # 1 for Ce read from file:
     /home/jld5415/pp.La/Ce.UPF
     MD5 check sum: 44451aa79a44a00cf2bc029dc19922f6
     Pseudo is Norm-conserving, Zval = 12.0
     Generated in analytical, separable form
     Using radial grid of 1255 points,  6 beta functions with: 
                l(1) =   0
                l(2) =   0
                l(3) =   1
                l(4) =   1
                l(5) =   2
                l(6) =   3

     PseudoPot. # 2 for Yb read from file:
     /home/jld5415/pp.La/Yb.UPF
     MD5 check sum: 3e859b81cc28c53ec6aa3a2e888efcdf
     Pseudo is Norm-conserving, Zval = 24.0
     Generated in analytical, separable form
     Using radial grid of 1269 points,  6 beta functions with: 
                l(1) =   0
                l(2) =   0
                l(3) =   1
                l(4) =   1
                l(5) =   2
                l(6) =   3

     atomic species   valence    mass     pseudopotential
        Cr            12.00    51.99610     Ce( 1.00)
        Si            24.00    28.08550     Yb( 1.00)

     48 Sym. Ops., with inversion, found (24 have fractional translation)



   Cartesian axes

     site n.     atom                  positions (alat units)
         1           Cr  tau(   1) = (   0.0000000   0.5000000   0.2500000  )
         2           Cr  tau(   2) = (   0.0000000   0.5000000   0.7500000  )
         3           Cr  tau(   3) = (   0.5000000   0.7500000   0.0000000  )
         4           Cr  tau(   4) = (   0.5000000   0.2500000   0.0000000  )
         5           Cr  tau(   5) = (   0.7500000   0.0000000   0.5000000  )
         6           Cr  tau(   6) = (   0.2500000   0.0000000   0.5000000  )
         7           Si  tau(   7) = (   0.5000000   0.5000000   0.5000000  )
         8           Si  tau(   8) = (   0.0000000   0.0000000   0.0000000  )

     number of k points=    48  gaussian smearing, width (Ry)=  0.1000
                       cart. coord. in units 2pi/alat
        k(    1) = (   0.0000000   0.0000000   0.0000000), wk =   0.0095238
        k(    2) = (   0.0000000   0.0000000   0.1428571), wk =   0.0190476
        k(    3) = (   0.0000000   0.0000000   0.2857143), wk =   0.0190476
        k(    4) = (   0.0000000   0.0000000   0.4285714), wk =   0.0190476
        k(    5) = (   0.0000000   0.1666667   0.0000000), wk =   0.0190476
        k(    6) = (   0.0000000   0.1666667   0.1428571), wk =   0.0380952
        k(    7) = (   0.0000000   0.1666667   0.2857143), wk =   0.0380952
        k(    8) = (   0.0000000   0.1666667   0.4285714), wk =   0.0380952
        k(    9) = (   0.0000000   0.3333333   0.0000000), wk =   0.0190476
        k(   10) = (   0.0000000   0.3333333   0.1428571), wk =   0.0380952
        k(   11) = (   0.0000000   0.3333333   0.2857143), wk =   0.0380952
        k(   12) = (   0.0000000   0.3333333   0.4285714), wk =   0.0380952
        k(   13) = (   0.0000000  -0.5000000   0.0000000), wk =   0.0095238
        k(   14) = (   0.0000000  -0.5000000   0.1428571), wk =   0.0190476
        k(   15) = (   0.0000000  -0.5000000   0.2857143), wk =   0.0190476
        k(   16) = (   0.0000000  -0.5000000   0.4285714), wk =   0.0190476
        k(   17) = (   0.2000000   0.0000000   0.0000000), wk =   0.0190476
        k(   18) = (   0.2000000   0.0000000   0.1428571), wk =   0.0380952
        k(   19) = (   0.2000000   0.0000000   0.2857143), wk =   0.0380952
        k(   20) = (   0.2000000   0.0000000   0.4285714), wk =   0.0380952
        k(   21) = (   0.2000000   0.1666667   0.0000000), wk =   0.0380952
        k(   22) = (   0.2000000   0.1666667   0.1428571), wk =   0.0761905
        k(   23) = (   0.2000000   0.1666667   0.2857143), wk =   0.0761905
        k(   24) = (   0.2000000   0.1666667   0.4285714), wk =   0.0761905
        k(   25) = (   0.2000000   0.3333333   0.0000000), wk =   0.0380952
        k(   26) = (   0.2000000   0.3333333   0.1428571), wk =   0.0761905
        k(   27) = (   0.2000000   0.3333333   0.2857143), wk =   0.0761905
        k(   28) = (   0.2000000   0.3333333   0.4285714), wk =   0.0761905
        k(   29) = (   0.2000000  -0.5000000   0.0000000), wk =   0.0190476
        k(   30) = (   0.2000000  -0.5000000   0.1428571), wk =   0.0380952
        k(   31) = (   0.2000000  -0.5000000   0.2857143), wk =   0.0380952
        k(   32) = (   0.2000000  -0.5000000   0.4285714), wk =   0.0380952
        k(   33) = (   0.4000000   0.0000000   0.0000000), wk =   0.0190476
        k(   34) = (   0.4000000   0.0000000   0.1428571), wk =   0.0380952
        k(   35) = (   0.4000000   0.0000000   0.2857143), wk =   0.0380952
        k(   36) = (   0.4000000   0.0000000   0.4285714), wk =   0.0380952
        k(   37) = (   0.4000000   0.1666667   0.0000000), wk =   0.0380952
        k(   38) = (   0.4000000   0.1666667   0.1428571), wk =   0.0761905
        k(   39) = (   0.4000000   0.1666667   0.2857143), wk =   0.0761905
        k(   40) = (   0.4000000   0.1666667   0.4285714), wk =   0.0761905
        k(   41) = (   0.4000000   0.3333333   0.0000000), wk =   0.0380952
        k(   42) = (   0.4000000   0.3333333   0.1428571), wk =   0.0761905
        k(   43) = (   0.4000000   0.3333333   0.2857143), wk =   0.0761905
        k(   44) = (   0.4000000   0.3333333   0.4285714), wk =   0.0761905
        k(   45) = (   0.4000000  -0.5000000   0.0000000), wk =   0.0190476
        k(   46) = (   0.4000000  -0.5000000   0.1428571), wk =   0.0380952
        k(   47) = (   0.4000000  -0.5000000   0.2857143), wk =   0.0380952
        k(   48) = (   0.4000000  -0.5000000   0.4285714), wk =   0.0380952

     Dense  grid:    21247 G-vectors     FFT dimensions: (  36,  36,  36)

     Largest allocated arrays     est. size (Mb)     dimensions
        Kohn-Sham Wavefunctions         0.75 Mb     (    683,   72)
        NL pseudopotentials             1.67 Mb     (    683,  160)
        Each V/rho on FFT grid          0.18 Mb     (  11664)
        Each G-vector array             0.04 Mb     (   5314)
        G-vector shells                 0.04 Mb     (   5314)
     Largest temporary arrays     est. size (Mb)     dimensions
        Each subspace H/S matrix        0.08 Mb     (  72,  72)
        Each <psi_i|beta_j> matrix      0.18 Mb     (    160,   72)
        Arrays for rho mixing           1.42 Mb     (  11664,   8)

     Initial potential from superposition of free atoms

     Starting from uniform charge
     Starting wfc are    0 randomized atomic wfcs

     total cpu time spent up to now is        3.3 secs

     Self-consistent Calculation

     iteration #  1     ecut=    40.00 Ry     beta=0.70
     CG style diagonalization
     ethr =  1.00E-02,  avg # of iterations = 13.2

     total cpu time spent up to now is       47.7 secs

     total energy              =    -471.19657296 Ry
     Harris-Foulkes estimate   =   -1733.33670696 Ry
     estimated scf accuracy    <    1482.96736566 Ry

     iteration #  2     ecut=    40.00 Ry     beta=0.70
     CG style diagonalization
     c_bands:  3 eigenvalues not converged
     c_bands:  5 eigenvalues not converged
     c_bands:  2 eigenvalues not converged
     c_bands:  1 eigenvalues not converged
     c_bands:  3 eigenvalues not converged
     c_bands:  5 eigenvalues not converged
     c_bands:  5 eigenvalues not converged
     c_bands:  4 eigenvalues not converged
     c_bands:  5 eigenvalues not converged
     c_bands:  2 eigenvalues not converged
     c_bands:  1 eigenvalues not converged
     c_bands:  3 eigenvalues not converged
     c_bands:  5 eigenvalues not converged
     c_bands:  2 eigenvalues not converged
     c_bands:  5 eigenvalues not converged
     c_bands:  5 eigenvalues not converged
     c_bands:  4 eigenvalues not converged
     c_bands:  4 eigenvalues not converged
     c_bands:  5 eigenvalues not converged
     c_bands:  4 eigenvalues not converged
     c_bands:  4 eigenvalues not converged
     c_bands:  2 eigenvalues not converged
     c_bands:  4 eigenvalues not converged
     c_bands:  3 eigenvalues not converged
     c_bands:  2 eigenvalues not converged
     c_bands:  3 eigenvalues not converged
     c_bands:  3 eigenvalues not converged
     c_bands:  2 eigenvalues not converged
     c_bands:  3 eigenvalues not converged
     c_bands:  4 eigenvalues not converged
     c_bands:  3 eigenvalues not converged
     c_bands:  5 eigenvalues not converged
     c_bands:  2 eigenvalues not converged
     c_bands:  1 eigenvalues not converged
     ethr =  1.00E-02,  avg # of iterations = 14.1

     total cpu time spent up to now is       94.1 secs

     total energy              =   -1154.26596346 Ry
     Harris-Foulkes estimate   =   -1893.08807149 Ry
     estimated scf accuracy    <    1310.52935375 Ry

     iteration #  3     ecut=    40.00 Ry     beta=0.70
     CG style diagonalization
     c_bands:  2 eigenvalues not converged
     ethr =  1.00E-02,  avg # of iterations = 11.3

     total cpu time spent up to now is      130.9 secs

     total energy              =   -1269.44758379 Ry
     Harris-Foulkes estimate   =   -1291.07603667 Ry
     estimated scf accuracy    <      45.97384951 Ry

     iteration #  4     ecut=    40.00 Ry     beta=0.70
     CG style diagonalization
     ethr =  1.00E-02,  avg # of iterations =  4.0

     total cpu time spent up to now is      143.7 secs

     total energy              =   -1272.98806332 Ry
     Harris-Foulkes estimate   =   -1275.77285978 Ry
     estimated scf accuracy    <       3.86055355 Ry

     iteration #  5     ecut=    40.00 Ry     beta=0.70
     CG style diagonalization
     ethr =  3.22E-03,  avg # of iterations =  4.4

     total cpu time spent up to now is      158.2 secs

     total energy              =   -1274.68708530 Ry
     Harris-Foulkes estimate   =   -1274.97823135 Ry
     estimated scf accuracy    <       0.61407656 Ry

     iteration #  6     ecut=    40.00 Ry     beta=0.70
     CG style diagonalization
     c_bands:  1 eigenvalues not converged
     ethr =  5.12E-04,  avg # of iterations =  4.0

     total cpu time spent up to now is      171.4 secs

     total energy              =   -1274.72525880 Ry
     Harris-Foulkes estimate   =   -1274.79703130 Ry
     estimated scf accuracy    <       0.09545946 Ry

     iteration #  7     ecut=    40.00 Ry     beta=0.70
     CG style diagonalization
     c_bands:  1 eigenvalues not converged
     c_bands:  1 eigenvalues not converged
     c_bands:  1 eigenvalues not converged
     c_bands:  1 eigenvalues not converged
     c_bands:  1 eigenvalues not converged
     c_bands:  1 eigenvalues not converged
     ethr =  7.95E-05,  avg # of iterations =  4.8

     total cpu time spent up to now is      187.2 secs

     total energy              =   -1274.77623983 Ry
     Harris-Foulkes estimate   =   -1274.78783279 Ry
     estimated scf accuracy    <       0.02663753 Ry

     iteration #  8     ecut=    40.00 Ry     beta=0.70
     CG style diagonalization
     c_bands:  1 eigenvalues not converged
     c_bands:  1 eigenvalues not converged
     c_bands:  1 eigenvalues not converged
     c_bands:  1 eigenvalues not converged
     c_bands:  1 eigenvalues not converged
     c_bands:  1 eigenvalues not converged
     ethr =  2.22E-05,  avg # of iterations =  3.6

     total cpu time spent up to now is      199.1 secs

     total energy              =   -1274.77615747 Ry
     Harris-Foulkes estimate   =   -1274.77957187 Ry
     estimated scf accuracy    <       0.00464997 Ry

     iteration #  9     ecut=    40.00 Ry     beta=0.70
     CG style diagonalization
     c_bands:  1 eigenvalues not converged
     c_bands:  1 eigenvalues not converged
     c_bands:  1 eigenvalues not converged
     c_bands:  1 eigenvalues not converged
     c_bands:  1 eigenvalues not converged
     c_bands:  1 eigenvalues not converged
     c_bands:  1 eigenvalues not converged
     c_bands:  1 eigenvalues not converged
     ethr =  3.87E-06,  avg # of iterations =  5.0

     total cpu time spent up to now is      215.5 secs

     total energy              =   -1274.77864652 Ry
     Harris-Foulkes estimate   =   -1274.77927272 Ry
     estimated scf accuracy    <       0.00119188 Ry

     iteration # 10     ecut=    40.00 Ry     beta=0.70
     CG style diagonalization
     c_bands:  1 eigenvalues not converged
     c_bands:  1 eigenvalues not converged
     c_bands:  1 eigenvalues not converged
     c_bands:  1 eigenvalues not converged
     c_bands:  1 eigenvalues not converged
     c_bands:  1 eigenvalues not converged
     ethr =  9.93E-07,  avg # of iterations =  3.6

     total cpu time spent up to now is      227.9 secs

     End of self-consistent calculation

          k = 0.0000 0.0000 0.0000 (  2601 PWs)   bands (ev):

   -81.6785 -81.5874 -40.6718 -40.6718 -40.6718 -40.6596 -40.6596 -40.6596
     0.5105   2.8679   2.8679   6.5329   6.5329   6.5329  13.4699  13.4699
    15.2874  15.2874  15.2874  15.6851  16.0118  16.0118  16.0118  16.8801
    16.8801  17.5362  17.5362  17.5362  18.3569  18.3569  22.4509  22.4509
    22.4509  23.8307  23.8307  23.8307  25.3378  25.3378  25.3378  29.5950
    29.8221  30.0033  30.0033  30.0033  33.8312  33.8312  33.8312  36.2302
    36.8661  36.8661  36.8661  40.7734  41.2159  41.2159  42.9886  42.9886
    43.2944  43.2944  43.2944  45.2121  45.2121  45.2121  45.2760  45.2760
    45.2760  48.3631  48.3632  48.3633  48.6602  50.7656  50.7660  50.7668

          k = 0.0000 0.0000 0.1429 (  2657 PWs)   bands (ev):

   -81.7417 -81.6872 -40.6844 -40.6844 -40.6816 -40.6736 -40.6736 -40.6732
     0.6210   2.7570   2.9805   6.1784   6.5151   6.5151  13.5860  13.6628
    15.2456  15.2456  15.3239  15.8630  15.9777  16.0473  16.0473  16.5129
    16.7214  17.7843  17.7843  18.0445  18.2701  18.5101  22.0060  22.0060
    22.4907  23.8692  24.1805  24.1805  24.9716  24.9716  25.2065  28.7709
    29.3235  30.0490  30.0490  30.3352  34.3060  34.3060  34.7336  35.8550
    36.6461  37.0138  37.0138  40.8985  40.9617  42.2305  42.2305  42.4690
    42.7140  42.8490  43.1690  45.1385  45.1430  45.1430  46.4423  46.4423
    46.4954  47.7388  47.7389  48.1097  49.1290  49.3965  49.3965  50.2092

          k = 0.0000 0.0000 0.2857 (  2677 PWs)   bands (ev):

   -81.7578 -81.7286 -40.6874 -40.6863 -40.6863 -40.6839 -40.6773 -40.6773
     0.9364   2.4342   3.3114   5.3953   6.4798   6.4798  13.9092  13.9109
    15.1093  15.1093  15.4284  15.8820  15.9471  16.1435  16.2761  16.2761
    16.6173  17.5999  18.2930  18.2930  19.0201  19.7024  21.2963  21.2963
    22.4004  23.9959  24.1691  24.1691  24.6978  24.6978  24.8924  26.1582
    29.0956  30.1074  30.1074  31.2220  34.6278  35.4208  35.4208  36.8438
    37.3745  37.3745  37.7913  40.0931  40.9478  41.2745  41.2745  42.3109
    42.5803  42.6185  44.0127  44.4556  44.4556  45.2392  45.5615  45.5615
    46.1952  48.2283  48.2281  48.2922  48.8901  49.0495  49.0500  49.1200

          k = 0.0000 0.0000 0.4286 (  2658 PWs)   bands (ev):

   -81.7177 -81.7148 -40.6808 -40.6808 -40.6788 -40.6782 -40.6782 -40.6748
     1.4097   1.9502   3.8468   4.5600   6.4526   6.4526  14.2075  14.2925
    14.9955  14.9955  15.4341  15.4526  15.5777  15.7397  16.5537  16.5537
    17.1075  17.3503  18.6600  18.6600  20.7342  20.8662  20.8662  21.0260
    21.9330  23.3149  23.4992  23.4992  24.2178  24.5301  25.0219  25.0219
    29.4578  30.1115  30.1115  30.4870  35.9014  36.4744  36.4744  37.6355
    37.6355  38.1854  39.4300  39.6458  41.0689  41.0815  41.0815  41.2149
    41.9148  42.3658  42.8533  43.2276  43.2276  43.2741  44.8302  44.8302
    47.6366  47.7151  47.7149  47.9757  48.3620  48.9280  48.9282  50.3287

          k = 0.0000 0.1667 0.0000 (  2653 PWs)   bands (ev):

   -81.7318 -81.6871 -40.6830 -40.6830 -40.6788 -40.6736 -40.6736 -40.6731
     0.6603   2.7175   3.0209   6.0655   6.5099   6.5099  13.6271  13.7092
    15.2281  15.2281  15.3371  15.9387  15.9658  16.0705  16.0705  16.4456
    16.6569  17.8623  17.8623  17.9594  18.3987  18.6355  21.8861  21.8861
    22.4934  23.8841  24.2703  24.2703  24.8547  24.8547  25.1634  28.3897
    29.2627  30.0620  30.0620  30.5116  34.4634  34.4634  35.0252  35.5820
    36.7919  37.0654  37.0654  40.8656  40.9059  42.0247  42.0247  42.6439
    42.8108  42.8935  43.1151  45.0474  45.0891  45.0891  46.4672  46.4673
    46.7992  47.8465  47.8466  48.0240  49.1511  49.1519  49.3166  50.1245

          k = 0.0000 0.1667 0.1429 (  2662 PWs)   bands (ev):

   -81.7541 -81.6921 -40.6868 -40.6859 -40.6819 -40.6810 -40.6722 -40.6697
     0.7692   2.7471   3.0005   6.0186   6.1830   6.4940  13.7348  13.9542
    15.1210  15.2627  15.4401  16.0126  16.0329  16.0691  16.0786  16.4584
    16.4959  17.7316  18.0505  18.2443  18.4174  18.8812  21.2938  21.5598
    23.2016  23.8783  24.1463  24.4129  24.4556  24.5389  25.3060  28.4244
    28.8265  29.3223  30.1054  30.9275  34.4727  34.7627  35.8273  35.9875
    36.1820  37.2189  37.2717  40.6860  41.1143  41.5696  42.3503  42.5667
    42.6893  42.9427  42.9627  44.5194  45.5756  45.9720  46.1676  46.5760
    46.8600  47.2743  47.3544  47.6914  48.4629  48.8296  49.3175  49.9591

          k = 0.0000 0.1667 0.2857 (  2666 PWs)   bands (ev):

   -81.7401 -81.7191 -40.6853 -40.6834 -40.6824 -40.6812 -40.6777 -40.6737
     1.0817   2.5265   3.2479   5.3372   6.0357   6.4588  13.9436  14.3559
    14.9616  15.2447  15.5916  15.9355  16.0159  16.1349  16.2891  16.3965
    16.6243  17.3982  18.3271  18.4722  19.0950  19.8452  20.8302  20.9395
    23.2986  23.3897  23.8885  24.2293  24.4352  24.7290  25.3050  26.2079
    28.4831  29.4524  30.1624  31.5702  34.9861  35.2928  35.6045  36.6817
    37.5844  37.6575  38.4456  39.7459  40.7834  40.8128  41.9470  42.3727
    42.3822  42.8140  43.7331  44.5002  44.7159  45.0834  45.4457  45.7061
    46.0624  46.6872  48.0186  48.1394  48.6293  49.2042  49.4705  49.7242

          k = 0.0000 0.1667 0.4286 (  2658 PWs)   bands (ev):

   -81.7254 -81.7097 -40.6829 -40.6817 -40.6799 -40.6780 -40.6777 -40.6718
     1.5456   2.0755   3.7687   4.4964   6.0100   6.4309  14.1857  14.7469
    14.8551  15.2558  15.4619  15.5951  15.7493  15.9002  16.5821  16.6118
    16.9422  17.2208  18.5860  18.7898  20.1714  20.5382  20.8696  21.1546
    22.7825  22.7829  23.2734  23.4945  24.3995  24.6702  24.8748  25.3718
    28.4756  29.9214  30.1694  30.9092  35.8721  36.1367  36.5972  37.7241
    37.8005  38.1806  39.4858  39.7291  40.5675  40.7832  40.7938  41.9332
    41.9782  42.5143  42.8240  43.4096  43.4439  44.1823  45.0456  45.2559
    45.6154  46.3869  47.9476  48.1167  48.9386  49.0457  49.7243  49.7747

          k = 0.0000 0.3333 0.0000 (  2677 PWs)   bands (ev):

   -81.7581 -81.7275 -40.6861 -40.6861 -40.6848 -40.6807 -40.6807 -40.6797
     1.0803   2.2864   3.4681   5.1095   6.4688   6.4688  13.9965  14.0460
    15.0620  15.0620  15.4746  15.7815  15.8386  15.8845  16.3802  16.3802
    16.8223  17.5020  18.4492  18.4492  19.4666  20.1601  21.1057  21.1057
    22.2936  23.9023  23.9022  24.0591  24.7710  24.8348  24.8348  25.2042
    29.1395  30.1125  30.1125  31.1578  34.7630  35.8214  35.8214  37.4920
    37.4920  37.6787  38.2939  39.6339  40.9839  41.1325  41.1325  42.1867
    42.2110  42.5474  43.5147  44.0349  44.0349  45.0248  45.2498  45.2498
    46.5558  47.9444  48.0172  48.0174  48.5272  49.0225  49.0226  49.8677

          k = 0.0000 0.3333 0.1429 (  2660 PWs)   bands (ev):

   -81.7263 -81.7149 -40.6847 -40.6813 -40.6808 -40.6784 -40.6777 -40.6723
     1.1862   2.3662   3.4153   5.0674   6.1291   6.4526  14.0214  14.3820
    14.9467  15.2000  15.6063  15.8052  15.9340  15.9484  16.3934  16.4463
    16.7766  17.3400  18.4496  18.5673  19.4863  20.1329  20.8456  20.8496
    22.9736  23.2944  23.7329  24.2428  24.6694  24.7424  25.2353  25.2457
    28.8684  29.4527  30.1580  31.4231  35.0043  35.6399  35.9102  37.1359
    37.6437  38.0821  38.7501  39.5629  40.7147  40.7687  41.5992  42.2135
    42.2803  42.5494  43.3841  43.9527  44.4485  44.7030  45.4122  45.8303
    46.1318  46.4166  47.8288  48.3276  48.6042  49.1469  49.5956  49.9714

          k = 0.0000 0.3333 0.2857 (  2658 PWs)   bands (ev):

   -81.7332 -81.7054 -40.6825 -40.6822 -40.6795 -40.6782 -40.6776 -40.6726
     1.4823   2.5205   3.3266   4.8501   5.5069   6.4169  14.1395  14.7739
    14.8958  15.3211  15.6857  15.8409  16.1466  16.1553  16.4567  16.4761
    16.6255  17.7360  18.2831  18.8723  19.6582  20.2640  20.2741  20.7882
    22.4385  23.4042  23.8781  24.2797  24.4265  24.7879  25.3424  25.6449
    26.3142  30.1643  30.2239  31.9311  34.9910  35.9951  36.3860  36.8382
    38.0306  38.3546  38.8674  39.2207  40.7294  40.7825  40.8715  42.1140
    42.2904  43.1341  43.3367  43.8108  44.1762  44.3511  45.6009  45.7105
    45.8753  46.6662  47.5222  48.3085  48.4460  48.8334  49.4496  50.0377

          k = 0.0000 0.3333 0.4286 (  2654 PWs)   bands (ev):

   -81.7158 -81.7090 -40.6845 -40.6820 -40.6805 -40.6805 -40.6701 -40.6699
     1.8798   2.4178   3.5561   4.2240   5.2852   6.3892  14.3806  14.6693
    15.1715  15.3168  15.4321  15.8724  16.0317  16.1831  16.5152  16.5806
    16.7104  18.1484  18.6271  19.1355  19.8533  20.1371  20.8703  20.9859
    21.7906  23.0883  23.4681  23.8126  24.6052  24.6829  24.7526  25.4945
    25.8548  30.2445  31.0086  31.8492  35.1830  36.3312  37.1254  37.2420
    37.6288  38.2321  39.0093  39.0209  39.8777  41.0205  41.5933  42.0022
    42.2403  42.3786  42.7061  43.4259  43.6504  44.3858  45.1240  46.0208
    46.6347  47.3105  47.6079  47.8814  48.2976  48.4437  49.3710  49.6694

          k = 0.0000-0.5000 0.0000 (  2666 PWs)   bands (ev):

   -81.7268 -81.7268 -40.6812 -40.6812 -40.6812 -40.6812 -40.6789 -40.6789
     1.6788   1.6788   4.1829   4.1829   6.4486   6.4486  14.3325  14.3325
    14.9794  14.9794  15.3191  15.3191  15.6592  15.6592  16.6012  16.6012
    17.2412  17.2412  18.7073  18.7073  20.8160  20.8160  21.5113  21.5113
    21.9861  21.9861  23.3951  23.3951  24.3637  24.3637  25.0658  25.0658
    29.9056  29.9056  30.1083  30.1083  36.6590  36.6590  37.0617  37.0617
    37.6541  37.6541  40.3335  40.3335  40.7788  40.7788  41.1107  41.1107
    41.8974  41.8974  42.7363  42.7363  42.9808  42.9808  44.7223  44.7223
    47.6300  47.6302  47.7100  47.7101  48.9454  48.9457  49.4880  49.4894

          k = 0.0000-0.5000 0.1429 (  2666 PWs)   bands (ev):

   -81.7274 -81.7272 -40.6849 -40.6847 -40.6807 -40.6806 -40.6760 -40.6760
     1.7478   1.8048   4.0831   4.1777   6.1116   6.4323  14.2416  14.7540
    14.8702  15.3041  15.3263  15.3419  15.7833  15.7922  16.6238  16.6458
    17.0452  17.1844  18.6322  18.7964  20.2845  20.5735  21.3777  21.8746
    22.1526  22.4504  22.8304  23.3510  24.4466  24.5704  24.9678  25.3158
    28.8473  30.1526  30.1973  30.3035  36.3050  36.5862  36.7594  37.3064
    37.7550  38.2878  39.7207  40.2656  40.4231  40.7609  40.8266  41.7843
    41.8843  42.1592  42.6142  42.9523  43.0730  44.2303  44.9234  45.2302
    45.3104  46.4604  47.8833  48.2885  48.9664  49.4019  49.5212  49.8928

          k = 0.0000-0.5000 0.2857 (  2658 PWs)   bands (ev):

   -81.7177 -81.7172 -40.6848 -40.6847 -40.6813 -40.6812 -40.6703 -40.6702
     1.9264   2.1682   3.8357   4.0745   5.4500   6.3964  14.3343  14.6999
    15.2568  15.2973  15.3358  15.7871  16.0134  16.0716  16.5940  16.6296
    16.7095  17.7524  18.6496  19.0509  20.0098  20.0669  21.0804  21.6987
    21.9533  22.3580  23.2937  23.5340  24.6130  24.6909  24.7688  25.7660
    26.3275  30.2286  30.9896  31.2367  35.8469  36.0550  37.2275  37.5165
    37.7210  38.0418  39.1181  39.2693  39.7832  40.8635  41.7504  42.0991
    42.1904  42.3358  42.8326  43.1082  43.6154  44.4460  44.5842  45.6126
    46.3784  46.7525  47.6407  47.8106  48.2947  48.6421  50.1522  50.3708

          k = 0.0000-0.5000 0.4286 (  2662 PWs)   bands (ev):

   -81.7234 -81.7234 -40.6838 -40.6838 -40.6837 -40.6834 -40.6721 -40.6718
     2.1085   2.6716   3.5983   3.6909   5.0655   6.3688  14.5973  14.7201
    15.2555  15.2754  15.3241  15.4756  16.1551  16.2814  16.5533  16.5827
    16.8763  18.7832  18.8613  19.3593  19.5035  20.8250  20.8613  21.2854
    21.5651  22.2713  23.0961  23.2353  24.7311  24.7316  24.7411  24.7447
    26.0261  30.2624  32.0632  32.1385  34.9635  35.5848  36.3411  38.1547
    38.3908  38.4799  38.7724  39.1179  39.1878  40.2764  41.0498  41.3405
    42.5779  42.6541  42.9844  43.0655  44.4127  45.2940  45.8292  46.0438
    46.7522  46.7602  47.5809  47.9146  48.2268  48.3296  48.4322  49.3567

          k = 0.2000 0.0000 0.0000 (  2661 PWs)   bands (ev):

   -81.7562 -81.6864 -40.6861 -40.6861 -40.6839 -40.6735 -40.6735 -40.6731
     0.7244   2.6521   3.0874   5.8915   6.5020   6.5020  13.6942  13.7699
    15.1983  15.1983  15.3586  15.9463  16.0459  16.1143  16.1143  16.3758
    16.5439  17.8432  17.9796  17.9796  18.5338  18.8980  21.7142  21.7142
    22.4874  23.9091  24.3950  24.3950  24.6758  24.6758  25.0955  27.8070
    29.1881  30.0780  30.0780  30.7584  34.7093  34.7093  35.2092  35.4806
    37.0290  37.1447  37.1447  40.7010  40.9133  41.7634  41.7634  42.5442
    42.7569  43.0138  43.5385  44.8388  44.9795  44.9795  46.2800  46.2803
    47.0379  48.0228  48.2058  48.2058  48.8380  48.8380  49.2880  49.6301

          k = 0.2000 0.0000 0.1429 (  2667 PWs)   bands (ev):

   -81.7460 -81.7142 -40.6865 -40.6865 -40.6839 -40.6802 -40.6745 -40.6730
     0.8330   2.6990   3.0526   5.8518   6.1658   6.4858  13.7837  14.0440
    15.0847  15.2560  15.4716  16.0263  16.0312  16.1145  16.1713  16.4059
    16.4507  17.6460  18.1506  18.2447  18.5520  19.1209  21.1584  21.4089
    23.2523  23.8388  24.2046  24.2940  24.3835  24.5410  25.2915  27.8427
    28.8389  29.3196  30.1215  31.1333  34.6482  34.9534  35.4933  36.3222
    36.3818  37.3001  37.5231  40.4956  41.0067  41.3532  42.2281  42.5827
    42.6250  42.9152  43.4912  44.3569  45.3908  45.6433  46.0896  46.2534
    46.9562  46.9912  47.6451  48.1023  48.3754  48.7380  49.3451  49.8295

          k = 0.2000 0.0000 0.2857 (  2659 PWs)   bands (ev):

   -81.7273 -81.7134 -40.6816 -40.6814 -40.6806 -40.6788 -40.6781 -40.6735
     1.1441   2.5549   3.2308   5.3017   5.8843   6.4508  13.9674  14.4889
    14.9194  15.2764  15.6426  15.9110  16.0642  16.1552  16.2986  16.4118
    16.6592  17.3875  18.2741  18.5447  19.1646  19.9267  20.7591  20.8078
    23.1954  23.5270  23.7948  24.2642  24.3360  24.7508  25.3906  26.2232
    27.9042  29.5798  30.1798  31.6911  35.0851  35.3082  35.7083  36.5561
    37.6707  37.8993  38.6727  39.5186  40.6927  40.7572  41.8581  42.2446
    42.3693  43.1768  43.8798  44.5160  44.5479  44.7477  45.4663  45.5976
    46.0926  46.6046  47.8754  48.0591  48.4998  49.3591  49.5720  49.9089

          k = 0.2000 0.0000 0.4286 (  2660 PWs)   bands (ev):

   -81.7279 -81.7125 -40.6834 -40.6822 -40.6822 -40.6783 -40.6756 -40.6733
     1.6018   2.1294   3.7330   4.4668   5.8529   6.4228  14.1945  14.8131
    14.8833  15.2888  15.4704  15.6819  15.8083  15.9574  16.5964  16.6201
    16.8554  17.2737  18.5722  18.8452  20.0857  20.4117  20.8951  21.1175
    22.5762  23.0299  23.2441  23.5084  24.4429  24.6936  24.8222  25.4843
    27.9024  30.1017  30.1876  31.0768  35.7504  36.1674  36.6735  37.8028
    37.8719  37.9593  39.4106  39.6353  40.5223  40.5852  40.9405  42.0213
    42.0304  42.7712  42.7950  43.3335  43.9778  43.9984  44.7890  45.2524
    45.8116  46.3160  47.8628  48.1239  48.7145  48.8867  49.9010  50.1395

          k = 0.2000 0.1667 0.0000 (  2672 PWs)   bands (ev):

   -81.7443 -81.7319 -40.6909 -40.6850 -40.6837 -40.6806 -40.6794 -40.6721
     0.8714   2.7020   3.0538   5.8253   6.0714   6.4807  13.8070  14.1244
    15.0566  15.2672  15.4995  16.0283  16.0558  16.1137  16.2037  16.4076
    16.4351  17.6045  18.2074  18.2263  18.6250  19.2240  21.0624  21.3151
    23.4007  23.7720  24.1545  24.2492  24.2919  24.5833  25.3163  27.8506
    28.4590  29.3533  30.1330  31.2487  34.6985  35.0446  35.5654  36.1322
    36.6248  37.3522  37.6848  40.3509  40.9509  41.2243  42.3610  42.5775
    42.6876  42.9401  43.4989  44.3270  45.2746  45.5132  46.1342  46.1854
    46.8581  46.9620  47.4749  48.2142  48.3680  48.6000  49.4064  49.8019

          k = 0.2000 0.1667 0.1429 (  2665 PWs)   bands (ev):

   -81.7433 -81.7134 -40.6883 -40.6835 -40.6830 -40.6819 -40.6741 -40.6718
     0.9802   2.8033   2.9750   5.8134   6.0138   6.1494  14.1194  14.2077
    15.1606  15.2173  15.5826  15.9182  16.1514  16.2115  16.2364  16.3296
    16.3603  17.7813  17.9921  18.2064  19.0711  19.3319  19.9899  22.4509
    22.9896  23.4806  24.0629  24.2661  24.4558  24.7792  25.0462  27.8840
    28.4922  28.8918  29.4445  31.5634  35.0838  35.2334  35.8549  36.3518
    36.6341  36.8273  38.4041  40.2167  40.3936  41.6438  42.2479  42.7895
    42.9849  43.1147  43.7379  44.0470  44.6629  44.8347  46.1097  46.3659
    46.7199  47.6838  47.7635  47.8877  48.2408  48.3778  48.6181  49.1323

          k = 0.2000 0.1667 0.2857 (  2655 PWs)   bands (ev):

   -81.7363 -81.6911 -40.6835 -40.6814 -40.6799 -40.6784 -40.6745 -40.6707
     1.2896   2.6810   3.1560   5.2801   5.8171   5.9928  14.4145  14.5621
    15.1359  15.2314  15.7369  15.8897  16.0931  16.1884  16.3357  16.3823
    16.6086  17.5648  17.9586  18.6852  19.1461  19.6023  20.0761  22.3422
    22.9096  23.2157  23.8769  24.2178  24.6276  24.6794  25.0560  26.2669
    27.9433  28.5450  29.7613  32.0025  35.4044  35.6259  36.1207  36.8049
    37.1432  37.9445  39.0818  39.5817  39.8960  41.5055  42.0900  42.4559
    42.7418  43.1002  43.2470  43.7504  44.2795  44.9903  45.7129  46.0312
    46.6342  46.8027  47.2287  47.4424  48.0322  48.1631  49.2673  49.2999

          k = 0.2000 0.1667 0.4286 (  2655 PWs)   bands (ev):

   -81.7158 -81.7085 -40.6832 -40.6812 -40.6786 -40.6785 -40.6741 -40.6726
     1.7450   2.2517   3.6901   4.4211   5.7987   5.9544  14.6656  14.7865
    15.1812  15.2636  15.5384  15.6160  15.9610  16.1098  16.5622  16.5865
    16.9714  17.2718  18.0889  18.5289  19.9911  20.0210  21.0769  22.1977
    22.6566  22.9121  23.2170  23.5425  24.4595  24.6482  24.9190  25.1398
    27.9499  28.5427  30.4120  31.4123  35.9377  36.2901  36.6759  37.5219
    38.0133  38.2343  39.5528  39.7843  40.4638  40.7392  40.9352  41.7773
    42.0571  42.3664  43.0449  43.1554  44.1007  44.6782  44.8302  45.4533
    45.9970  46.4998  47.2912  47.6083  47.9831  48.3795  49.6436  49.8339

          k = 0.2000 0.3333 0.0000 (  2656 PWs)   bands (ev):

   -81.7302 -81.7014 -40.6822 -40.6813 -40.6803 -40.6783 -40.6767 -40.6709
     1.2846   2.4319   3.3719   5.0176   5.8691   6.4395  14.0468  14.6179
    14.8741  15.2695  15.6989  15.7857  16.0097  16.0352  16.4101  16.4770
    16.7629  17.3298  18.3917  18.6735  19.5147  20.1761  20.6319  20.7802
    22.9506  23.3610  23.6113  24.3156  24.5286  24.7635  25.2819  25.4204
    27.9087  29.7114  30.1871  31.6286  35.1108  35.6168  36.0410  36.9930
    37.7825  38.2467  39.0410  39.3045  40.6377  40.6791  41.3906  42.1577
    42.2420  43.0676  43.5627  44.2205  44.2339  44.2815  45.4079  45.5798
    46.1654  46.4034  47.9279  47.9837  48.4728  49.2411  49.4559  50.1590

          k = 0.2000 0.3333 0.1429 (  2657 PWs)   bands (ev):

   -81.7335 -81.6990 -40.6827 -40.6813 -40.6795 -40.6786 -40.6768 -40.6719
     1.3911   2.5228   3.3265   4.9964   5.8255   6.0847  14.4100  14.6374
    15.0741  15.2331  15.7471  15.8147  15.9717  16.1540  16.4112  16.4665
    16.7451  17.4039  18.0180  18.9502  19.2659  19.6981  20.3538  22.0388
    22.8209  23.1959  23.6859  24.2768  24.6838  24.6977  25.1561  25.3230
    27.9417  28.9311  29.8741  31.8651  35.3336  35.7858  36.3001  37.1788
    37.4792  38.3134  38.9003  39.5720  40.1869  41.3550  41.5511  42.0713
    42.6123  42.9365  43.1118  43.5760  44.1020  45.0773  45.2200  46.0602
    46.3412  46.8226  47.1034  47.6175  48.0099  48.4456  49.2410  49.6185

          k = 0.2000 0.3333 0.2857 (  2656 PWs)   bands (ev):

   -81.7284 -81.6995 -40.6834 -40.6821 -40.6802 -40.6776 -40.6754 -40.6709
     1.6904   2.7190   3.2420   4.8694   5.3522   5.7627  14.7467  14.9663
    15.1584  15.3292  15.7714  15.9235  16.0560  16.2175  16.3476  16.4375
    16.9320  17.5323  18.0881  18.4904  18.9183  20.0887  20.5857  22.4472
    22.5662  23.3846  23.7150  24.2287  24.6150  24.6635  25.0266  25.3939
    26.3640  27.9903  30.3819  32.3270  35.4395  36.1949  36.8064  37.1365
    37.8342  38.4342  38.9115  39.0370  40.2864  41.3157  41.8257  41.9700
    42.0640  42.3888  43.3151  43.8858  44.2350  45.0736  45.2411  45.5884
    46.4114  46.9379  47.0748  47.3385  48.1942  48.3527  48.8931  49.1079

          k = 0.2000 0.3333 0.4286 (  2643 PWs)   bands (ev):

   -81.6986 -81.6914 -40.6809 -40.6807 -40.6758 -40.6757 -40.6716 -40.6673
     2.1054   2.5878   3.5435   4.2421   5.0951   5.7172  14.9618  15.0900
    15.2528  15.3548  15.5305  15.9509  16.1126  16.2564  16.4012  16.4840
    17.1202  17.4717  17.7463  18.7477  19.8336  20.3078  21.1217  22.1296
    22.3834  23.1972  23.5008  23.7734  24.5977  24.6646  24.7327  25.0553
    25.5420  27.9974  31.2572  32.2141  35.4281  36.4707  36.9199  37.0499
    38.0644  38.5824  39.3773  39.6991  40.4856  40.5779  41.2725  41.6061
    41.9285  42.2536  42.9640  43.4648  44.3801  44.3951  44.8718  45.6986
    45.8729  47.1278  47.8192  48.0148  48.4104  48.6899  49.4928  49.6247

          k = 0.2000-0.5000 0.0000 (  2658 PWs)   bands (ev):

   -81.7162 -81.7162 -40.6803 -40.6803 -40.6797 -40.6796 -40.6760 -40.6760
     1.8098   1.9243   3.9956   4.1596   5.8497   6.4190  14.2410  14.7988
    15.0211  15.3071  15.3324  15.5528  15.8827  15.8899  16.6482  16.6625
    16.8701  17.2634  18.6101  18.8808  20.1263  20.3686  21.2614  21.8126
    22.2674  22.4782  22.9216  23.3204  24.5112  24.6335  24.8868  25.5043
    27.8987  30.1858  30.4527  30.6430  36.1489  36.3583  36.8888  37.3876
    37.8495  38.3359  39.4466  39.7317  40.3549  40.4866  41.1221  41.9712
    42.0712  42.6196  42.6365  42.9630  43.9257  43.9558  44.5856  45.3649
    45.7971  45.8136  47.8078  48.2329  48.5640  49.2022  50.1100  50.1546

          k = 0.2000-0.5000 0.1429 (  2658 PWs)   bands (ev):

   -81.7164 -81.7160 -40.6828 -40.6828 -40.6804 -40.6803 -40.6731 -40.6731
     1.9366   1.9936   4.0085   4.0834   5.8086   6.0629  14.6138  14.8043
    15.2502  15.3189  15.3509  15.4814  15.9916  16.0218  16.6268  16.6298
    16.9819  17.2163  18.3162  18.4363  20.1408  20.1490  21.9526  21.9803
    22.3026  22.6113  22.9646  23.1422  24.5435  24.5858  24.9714  25.2206
    27.9383  28.9217  30.7636  30.8392  36.3600  36.4227  36.8742  36.9341
    38.3227  38.3677  39.7017  40.1586  40.2835  40.4461  41.0455  41.4330
    42.0730  42.0775  42.8587  43.2314  44.0358  44.4707  44.5735  45.3998
    45.9092  46.5068  47.1559  47.5512  48.1287  48.3333  49.9007  50.1235

          k = 0.2000-0.5000 0.2857 (  2648 PWs)   bands (ev):

   -81.7024 -81.7017 -40.6808 -40.6807 -40.6783 -40.6783 -40.6702 -40.6701
     2.1766   2.3028   3.8750   3.9889   5.3135   5.7323  14.9387  15.0279
    15.3353  15.3358  15.4741  15.7627  16.1229  16.2145  16.4701  16.5289
    17.1470  17.5174  17.7891  18.2806  20.1275  20.2066  21.9032  21.9040
    22.5985  22.6052  23.2094  23.4904  24.6245  24.6514  24.7839  25.0547
    26.3785  27.9878  31.4411  31.5090  36.1404  36.2560  36.8403  37.2330
    37.8983  38.4751  39.8516  39.9108  40.1863  40.6801  41.2475  41.3726
    41.7750  42.2338  43.1343  43.5668  44.0589  44.0971  45.1533  45.4422
    45.7658  46.6481  47.7984  47.9995  48.5496  48.6244  49.1449  49.2046

          k = 0.2000-0.5000 0.4286 (  2646 PWs)   bands (ev):

   -81.6988 -81.6982 -40.6804 -40.6803 -40.6794 -40.6793 -40.6683 -40.6683
     2.3691   2.8189   3.6531   3.7348   4.7868   5.6855  15.0967  15.2296
    15.3400  15.3447  15.3628  15.8657  16.2047  16.2584  16.4611  16.4910
    17.1875  17.4536  17.4695  19.9067  20.3678  20.4214  21.2380  21.6002
    22.4292  22.6938  23.1696  23.3814  24.5203  24.5322  24.8454  24.9677
    25.0829  28.0026  32.3595  32.3793  34.8998  35.7116  36.0611  37.9725
    38.6981  39.2853  39.5234  39.9304  40.1023  40.4697  40.5650  40.8936
    41.4720  41.9593  43.9064  44.1814  44.2796  44.5347  45.0011  45.7143
    45.7931  46.7351  46.8380  47.7628  49.2812  49.3721  49.6299  49.9300

          k = 0.4000 0.0000 0.0000 (  2657 PWs)   bands (ev):

   -81.7361 -81.6929 -40.6834 -40.6834 -40.6796 -40.6764 -40.6764 -40.6716
     1.3064   2.0556   3.7243   4.7205   6.4564   6.4564  14.1410  14.2305
    15.0106  15.0106  15.5439  15.5456  15.5470  15.7711  16.5115  16.5115
    17.0386  17.3926  18.6142  18.6142  20.3136  20.7742  20.9164  20.9164
    22.0639  23.5943  23.5943  23.8724  24.1659  24.6010  24.9799  24.9799
    29.3323  30.1137  30.1137  30.7230  35.4813  36.3146  36.3146  37.6092
    37.6092  38.4857  39.0781  39.2307  41.0495  41.0727  41.0727  41.5436
    41.9970  42.4447  42.9902  43.4373  43.4373  43.7720  44.9280  44.9280
    47.6809  47.7965  47.7967  47.8456  48.1235  48.9335  48.9335  50.4095

          k = 0.4000 0.0000 0.1429 (  2659 PWs)   bands (ev):

   -81.7306 -81.7077 -40.6822 -40.6821 -40.6819 -40.6782 -40.6768 -40.6724
     1.4090   2.1444   3.6687   4.6744   6.1182   6.4399  14.1434  14.5655
    14.8987  15.2017  15.5608  15.6512  15.6783  15.8901  16.5298  16.5605
    16.9426  17.2521  18.5656  18.7153  20.1517  20.5074  20.6664  21.0383
    22.7141  23.0151  23.4741  23.9316  24.3266  24.6907  24.8563  25.2732
    28.8593  29.6738  30.1580  31.0232  35.5772  36.0476  36.3892  37.5818
    37.7423  38.4077  39.3289  39.5087  40.6287  40.7071  41.1622  41.9355
    42.0183  42.4425  43.0943  43.1899  43.7203  44.3899  45.1288  45.4464
    45.6258  46.7356  47.9733  48.0800  48.8538  49.0862  49.6160  49.6813

          k = 0.4000 0.0000 0.2857 (  2657 PWs)   bands (ev):

   -81.7300 -81.7049 -40.6853 -40.6810 -40.6808 -40.6807 -40.6750 -40.6685
     1.6873   2.3790   3.5174   4.4917   5.4652   6.4044  14.2476  14.7271
    15.0485  15.3175  15.5326  15.9268  15.9548  16.1281  16.5546  16.6065
    16.6112  17.7570  18.5182  18.9929  19.9743  20.0956  20.6029  20.9555
    22.1451  23.2529  23.6781  23.9240  24.5142  24.6811  24.7589  25.7213
    26.3230  30.2287  30.5025  31.7217  35.1949  36.3909  36.8176  37.0888
    38.0127  38.1057  39.0056  39.1836  40.3166  40.7808  41.3568  42.1159
    42.1469  42.6510  43.0474  43.6268  43.7766  44.0927  45.1239  45.7064
    46.0971  47.1719  47.5407  48.1657  48.2850  48.4570  49.7190  50.2154

          k = 0.4000 0.0000 0.4286 (  2657 PWs)   bands (ev):

   -81.7216 -81.7116 -40.6861 -40.6828 -40.6824 -40.6790 -40.6726 -40.6691
     2.0126   2.5675   3.5064   3.9988   5.1344   6.3764  14.5459  14.6236
    15.2103  15.3149  15.3703  15.6931  16.1082  16.2505  16.5338  16.5640
    16.7996  18.6169  18.7099  19.2801  19.6248  20.5558  20.8370  20.9240
    21.4870  23.0610  23.2950  23.5991  24.6364  24.6696  24.7604  24.8493
    25.9648  30.2571  31.5078  32.1420  34.9879  35.9587  36.8186  37.6582
    37.7669  38.3947  38.8644  39.0913  39.5634  40.8659  41.2190  41.8035
    42.4084  42.4678  42.5522  43.1988  44.3327  44.7396  45.4925  45.7795
    46.9444  47.4154  47.7611  47.9980  48.2311  48.4859  48.8197  49.0567

          k = 0.4000 0.1667 0.0000 (  2659 PWs)   bands (ev):

   -81.7252 -81.7132 -40.6834 -40.6816 -40.6799 -40.6780 -40.6777 -40.6729
     1.4449   2.1755   3.6484   4.6570   6.0131   6.4346  14.1444  14.6676
    14.8688  15.2378  15.5647  15.6973  15.7176  15.9271  16.5372  16.5731
    16.9083  17.2414  18.5521  18.7509  20.0830  20.5302  20.5843  21.0262
    22.8709  22.8836  23.4392  23.9469  24.3585  24.7055  24.8182  25.3543
    28.4797  29.7846  30.1710  31.1222  35.5736  36.0071  36.4284  37.6267
    37.7896  38.2671  39.3583  39.5384  40.5816  40.7171  41.0154  41.9948
    42.0296  42.5871  43.0507  43.4859  43.7233  44.2524  45.1760  45.3014
    45.7551  46.5576  47.9750  48.0244  48.7800  49.0217  49.7202  49.8087

          k = 0.4000 0.1667 0.1429 (  2662 PWs)   bands (ev):

   -81.7277 -81.7178 -40.6836 -40.6832 -40.6810 -40.6795 -40.6780 -40.6727
     1.5498   2.2650   3.6076   4.6213   5.9799   6.0836  14.5137  14.6168
    15.1166  15.1863  15.6034  15.6463  15.8619  16.0567  16.5400  16.5720
    16.8921  17.2481  18.1623  18.8035  19.9101  19.9430  20.7371  21.9661
    22.7616  22.9149  23.3459  23.9917  24.3935  24.6654  24.9196  25.1590
    28.5178  28.9133  30.0298  31.3830  35.6978  36.0895  36.5044  37.5457
    37.9185  38.2681  39.3907  39.7212  40.2883  41.0138  41.0894  41.8316
    42.3442  42.5936  42.7477  43.0995  44.0797  44.5641  44.9758  45.5610
    46.3908  46.6616  47.3870  47.5700  47.9276  48.2500  49.7455  49.9579

          k = 0.4000 0.1667 0.2857 (  2650 PWs)   bands (ev):

   -81.7063 -81.7049 -40.6821 -40.6797 -40.6786 -40.6780 -40.6721 -40.6709
     1.8359   2.5044   3.4881   4.4884   5.3613   5.9220  14.7160  14.9738
    15.1399  15.3314  15.5936  15.8848  16.0286  16.2309  16.4471  16.5145
    16.9347  17.5309  18.0261  18.5409  19.6655  20.0844  20.8921  22.0724
    22.4216  23.2447  23.6120  23.9585  24.5052  24.6974  24.7267  25.2026
    26.3645  28.5725  30.6858  32.0103  35.4646  36.5281  36.8017  37.2785
    37.9783  38.1921  39.3080  39.3460  40.6332  40.8350  41.4992  41.5471
    42.0206  42.3927  43.1055  43.5600  44.1414  44.3675  45.0456  45.7753
    45.9917  46.8809  47.4180  47.6150  48.5296  48.5835  49.4131  49.8109

          k = 0.4000 0.1667 0.4286 (  2652 PWs)   bands (ev):

   -81.7096 -81.7059 -40.6826 -40.6825 -40.6805 -40.6778 -40.6734 -40.6680
     2.1825   2.6810   3.5148   4.0400   4.9536   5.8834  14.9427  15.0237
    15.2574  15.3472  15.4203  15.9053  16.1408  16.2387  16.4674  16.4969
    17.0051  17.6472  17.8206  19.5535  19.8999  20.3749  21.0120  21.6735
    22.1625  23.1571  23.3395  23.7068  24.4549  24.6568  24.8400  24.8733
    25.2909  28.5884  31.6435  32.3815  35.0340  36.1727  36.4225  37.5452
    38.2928  38.9090  39.1418  39.7657  40.3763  40.7340  41.0099  41.2847
    41.6552  41.9733  43.2992  43.6829  43.9159  44.8198  45.0621  45.4815
    46.1249  46.8415  47.7071  48.3453  48.7218  49.1002  49.6297  49.7680

          k = 0.4000 0.3333 0.0000 (  2652 PWs)   bands (ev):

   -81.7166 -81.7039 -40.6830 -40.6819 -40.6807 -40.6793 -40.6708 -40.6688
     1.8022   2.4652   3.4737   4.3622   5.3015   6.3931  14.3358  14.6825
    15.1230  15.3205  15.4848  15.9487  16.0008  16.1913  16.5067  16.5639
    16.6673  18.1421  18.5387  19.1054  19.9010  20.0953  20.5982  20.9360
    21.8828  23.2040  23.7922  23.9071  24.5720  24.6769  24.7687  25.4887
    25.8296  30.2435  30.8374  31.9493  35.0441  36.4826  36.9511  37.0675
    37.7374  38.2425  38.9202  39.0607  40.0855  40.9512  41.6099  42.0141
    42.1816  42.3585  42.8875  43.4492  43.7570  44.3966  45.2813  45.7586
    46.6649  47.3133  47.5593  48.0741  48.3554  48.4683  49.3785  49.6896

          k = 0.4000 0.3333 0.1429 (  2654 PWs)   bands (ev):

   -81.7150 -81.7081 -40.6830 -40.6824 -40.6821 -40.6789 -40.6705 -40.6704
     1.9158   2.5584   3.4604   4.3796   5.1957   6.0239  14.6971  14.9242
    15.1603  15.3407  15.5252  15.9791  16.0526  16.2254  16.4443  16.5121
    16.8570  17.6967  18.0998  18.9320  19.6506  20.1375  20.8737  21.7386
    22.2138  23.2370  23.7637  23.9182  24.5776  24.6391  24.7786  25.3171
    25.5606  28.9694  30.9387  32.1517  35.2100  36.6149  36.8870  37.0651
    37.9213  38.3723  39.1094  39.3851  40.6916  40.9962  41.2811  41.5845
    41.9919  42.1770  43.1030  43.3909  43.9890  44.6791  44.7600  45.6625
    46.3998  47.1326  47.5221  47.9029  48.4256  49.1455  49.5096  49.7559

          k = 0.4000 0.3333 0.2857 (  2651 PWs)   bands (ev):

   -81.7054 -81.7047 -40.6839 -40.6805 -40.6790 -40.6762 -40.6721 -40.6713
     2.2300   2.8327   3.3883   4.4067   4.9567   5.2177  15.1732  15.2289
    15.3500  15.3827  15.7777  15.9777  16.1390  16.2396  16.3262  16.3941
    17.0140  17.3800  17.9567  18.6012  19.4512  20.5557  21.0340  22.5127
    22.6582  23.3715  23.5956  24.0436  24.5342  24.6336  24.7045  24.9064
    25.5211  26.3921  31.3599  32.6645  35.5159  36.3742  36.7059  36.9733
    38.3900  38.6473  39.1488  39.3225  40.2195  40.8735  41.5188  41.6120
    42.2987  42.6200  42.9093  43.5030  44.2536  44.4118  45.3108  46.0125
    46.2887  46.8092  47.8391  47.9579  48.0389  48.5018  48.8620  49.2125

          k = 0.4000 0.3333 0.4286 (  2646 PWs)   bands (ev):

   -81.6991 -81.6950 -40.6814 -40.6789 -40.6774 -40.6747 -40.6728 -40.6701
     2.6441   3.0300   3.4659   4.1367   4.5592   4.8603  15.3386  15.3487
    15.3968  15.4114  15.8431  16.1194  16.2019  16.2311  16.3301  16.3492
    16.7672  16.9062  18.4716  19.3823  19.7981  20.7753  21.1821  22.2619
    22.6625  23.2272  23.4751  23.8016  24.1787  24.6864  24.8042  24.9461
    24.9832  25.5049  32.2552  33.0816  35.2465  36.0035  36.2211  36.7390
    37.8046  38.2693  39.6708  40.0942  40.5149  40.8657  41.5852  41.9381
    42.5352  42.7826  42.9162  43.5878  44.1459  44.3961  44.9412  46.1532
    46.3198  46.8072  47.2459  47.7318  48.1516  48.8728  49.1713  49.1801

          k = 0.4000-0.5000 0.0000 (  2650 PWs)   bands (ev):

   -81.7069 -81.7069 -40.6831 -40.6830 -40.6806 -40.6805 -40.6676 -40.6674
     2.0810   2.5743   3.6339   3.7819   5.1061   6.3726  14.6101  14.6274
    15.2745  15.2817  15.3204  15.5836  16.1373  16.2566  16.5339  16.5874
    16.8440  18.6489  18.8199  19.3076  19.5776  20.5516  20.8919  21.3817
    21.5759  22.2950  23.2511  23.4654  24.7162  24.7252  24.7350  24.8074
    25.9952  30.2599  31.8694  31.9959  35.1324  35.6911  36.5414  37.9507
    38.2108  38.3288  38.8252  39.1893  39.2001  40.6027  41.3054  41.4685
    42.5189  42.5206  42.8367  43.1821  43.9889  45.1448  45.5342  46.2080
    46.8991  46.9154  47.5802  48.0307  48.2966  48.4128  48.6397  48.9577

          k = 0.4000-0.5000 0.1429 (  2650 PWs)   bands (ev):

   -81.7058 -81.7043 -40.6811 -40.6810 -40.6801 -40.6801 -40.6697 -40.6696
     2.2134   2.6484   3.6628   3.7982   4.9660   5.9995  14.8755  14.9853
    15.3132  15.3217  15.3413  15.7479  16.1646  16.2472  16.4848  16.5395
    16.9650  17.8626  17.9213  19.5737  20.1406  20.4388  21.1955  21.4686
    22.1619  22.4894  23.2145  23.5679  24.5634  24.6427  24.8611  24.8767
    25.4491  28.9781  32.0277  32.0999  35.1234  35.7992  36.3409  37.9010
    38.2680  38.8110  39.4652  39.6212  39.8390  40.8509  41.0319  41.2968
    41.5030  41.8527  43.4552  43.8100  44.0291  44.5090  44.8924  45.9863
    46.0775  47.1927  47.4404  47.8300  48.8862  49.0853  49.5036  49.9656

          k = 0.4000-0.5000 0.2857 (  2640 PWs)   bands (ev):

   -81.6895 -81.6890 -40.6798 -40.6797 -40.6743 -40.6743 -40.6697 -40.6696
     2.6015   2.8548   3.7285   3.8137   4.6448   5.1502  15.3208  15.3214
    15.3765  15.3847  15.6140  16.0871  16.2347  16.2615  16.3526  16.4053
    16.9889  16.9943  17.8939  19.4411  20.3921  20.4354  21.5572  21.8224
    22.7453  22.9424  23.1899  23.8161  24.1994  24.6249  24.7353  24.9756
    25.0164  26.3824  32.5295  32.5300  35.2230  35.7217  36.2567  37.1580
    38.3204  38.6965  39.7978  39.8190  40.3199  40.6402  41.0928  41.6751
    42.0832  42.5700  43.1654  43.8800  43.9888  45.1126  45.2564  45.4647
    45.8164  46.6692  47.1109  47.8093  48.6155  48.8766  49.1840  49.8869

          k = 0.4000-0.5000 0.4286 (  2640 PWs)   bands (ev):

   -81.6869 -81.6868 -40.6784 -40.6784 -40.6741 -40.6740 -40.6708 -40.6708
     3.1133   3.1942   3.7397   3.7567   4.2679   4.3897  15.4061  15.4061
    15.4166  15.4171  16.0505  16.1455  16.2679  16.2772  16.3005  16.3051
    16.5410  16.5418  19.3917  19.7570  20.5732  20.6054  21.4718  21.5361
    22.9654  22.9736  23.2363  23.3190  23.8611  24.2881  24.9661  24.9695
    25.0779  25.0785  33.4138  33.4163  35.3093  35.5592  35.8263  36.1334
    36.9405  36.9798  40.8055  40.8087  41.2403  41.2835  41.7980  42.0780
    42.6412  42.7549  43.5261  43.6409  44.0118  44.2222  45.3116  45.4439
    45.9842  45.9953  47.4654  47.5583  48.4326  48.5790  48.8037  49.0138

     the Fermi energy is    43.9346 ev

!    total energy              =   -1274.77877940 Ry
     Harris-Foulkes estimate   =   -1274.77885002 Ry
     estimated scf accuracy    <       0.00007564 Ry

     The total energy is the sum of the following terms:

     one-electron contribution =      -4.99905877 Ry
     hartree contribution      =     155.55581292 Ry
     xc contribution           =    -135.38589002 Ry
     ewald contribution        =   -1289.68083993 Ry
     smearing contrib. (-TS)   =      -0.26880360 Ry

     convergence has been achieved in  10 iterations

     Forces acting on atoms (Ry/au):

     atom    1 type  1   force =     0.00000000    0.00000000    0.00000000
     atom    2 type  1   force =     0.00000000    0.00000000    0.00000000
     atom    3 type  1   force =     0.00000000    0.00000000    0.00000000
     atom    4 type  1   force =     0.00000000    0.00000000    0.00000000
     atom    5 type  1   force =     0.00000000    0.00000000    0.00000000
     atom    6 type  1   force =     0.00000000    0.00000000    0.00000000
     atom    7 type  2   force =     0.00000000    0.00000000    0.00000000
     atom    8 type  2   force =     0.00000000    0.00000000    0.00000000

     Total force =     0.000000     Total SCF correction =     0.000000


     entering subroutine stress ...

          total   stress  (Ry/bohr**3)                   (kbar)     P= 5305.60
   0.03606672   0.00000000   0.00000000       5305.60      0.00      0.00
   0.00000000   0.03606672   0.00000000          0.00   5305.60      0.00
   0.00000000   0.00000000   0.03606672          0.00      0.00   5305.60


     BFGS Geometry Optimization

     number of scf cycles    =   1
     number of bfgs steps    =   0

     enthalpy new            =   -1274.7787794024 Ry

     new trust radius        =       0.5000000000 bohr
     new conv_thr            =       0.0001000000 Ry

     new unit-cell volume =    828.02266 a.u.^3 (   122.70030 Ang^3 )

CELL_PARAMETERS (alat=  8.53457320)
   1.100269143   0.000000000   0.000000000
   0.000000000   1.100269143   0.000000000
   0.000000000   0.000000000   1.100269143

ATOMIC_POSITIONS (crystal)
Cr       0.000000000   0.500000000   0.250000000
Cr       0.000000000   0.500000000   0.750000000
Cr       0.500000000   0.750000000   0.000000000
Cr       0.500000000   0.250000000   0.000000000
Cr       0.750000000   0.000000000   0.500000000
Cr       0.250000000   0.000000000   0.500000000
Si       0.500000000   0.500000000   0.500000000
Si       0.000000000   0.000000000   0.000000000



     Writing output data file Prototype-La-cP8-Cr3Si.save
     NEW-OLD atomic charge density approx. for the potential
     NEW k-points:
        k(    1) = (   0.0000000   0.0000000   0.0000000), wk =   0.0095238
        k(    2) = (   0.0000000   0.0000000   0.1298384), wk =   0.0190476
        k(    3) = (   0.0000000   0.0000000   0.2596767), wk =   0.0190476
        k(    4) = (   0.0000000   0.0000000   0.3895151), wk =   0.0190476
        k(    5) = (   0.0000000   0.1514781   0.0000000), wk =   0.0190476
        k(    6) = (   0.0000000   0.1514781   0.1298384), wk =   0.0380952
        k(    7) = (   0.0000000   0.1514781   0.2596767), wk =   0.0380952
        k(    8) = (   0.0000000   0.1514781   0.3895151), wk =   0.0380952
        k(    9) = (   0.0000000   0.3029562   0.0000000), wk =   0.0190476
        k(   10) = (   0.0000000   0.3029562   0.1298384), wk =   0.0380952
        k(   11) = (   0.0000000   0.3029562   0.2596767), wk =   0.0380952
        k(   12) = (   0.0000000   0.3029562   0.3895151), wk =   0.0380952
        k(   13) = (   0.0000000  -0.4544343   0.0000000), wk =   0.0095238
        k(   14) = (   0.0000000  -0.4544343   0.1298384), wk =   0.0190476
        k(   15) = (   0.0000000  -0.4544343   0.2596767), wk =   0.0190476
        k(   16) = (   0.0000000  -0.4544343   0.3895151), wk =   0.0190476
        k(   17) = (   0.1817737   0.0000000   0.0000000), wk =   0.0190476
        k(   18) = (   0.1817737   0.0000000   0.1298384), wk =   0.0380952
        k(   19) = (   0.1817737   0.0000000   0.2596767), wk =   0.0380952
        k(   20) = (   0.1817737   0.0000000   0.3895151), wk =   0.0380952
        k(   21) = (   0.1817737   0.1514781   0.0000000), wk =   0.0380952
        k(   22) = (   0.1817737   0.1514781   0.1298384), wk =   0.0761905
        k(   23) = (   0.1817737   0.1514781   0.2596767), wk =   0.0761905
        k(   24) = (   0.1817737   0.1514781   0.3895151), wk =   0.0761905
        k(   25) = (   0.1817737   0.3029562   0.0000000), wk =   0.0380952
        k(   26) = (   0.1817737   0.3029562   0.1298384), wk =   0.0761905
        k(   27) = (   0.1817737   0.3029562   0.2596767), wk =   0.0761905
        k(   28) = (   0.1817737   0.3029562   0.3895151), wk =   0.0761905
        k(   29) = (   0.1817737  -0.4544343   0.0000000), wk =   0.0190476
        k(   30) = (   0.1817737  -0.4544343   0.1298384), wk =   0.0380952
        k(   31) = (   0.1817737  -0.4544343   0.2596767), wk =   0.0380952
        k(   32) = (   0.1817737  -0.4544343   0.3895151), wk =   0.0380952
        k(   33) = (   0.3635474   0.0000000   0.0000000), wk =   0.0190476
        k(   34) = (   0.3635474   0.0000000   0.1298384), wk =   0.0380952
        k(   35) = (   0.3635474   0.0000000   0.2596767), wk =   0.0380952
        k(   36) = (   0.3635474   0.0000000   0.3895151), wk =   0.0380952
        k(   37) = (   0.3635474   0.1514781   0.0000000), wk =   0.0380952
        k(   38) = (   0.3635474   0.1514781   0.1298384), wk =   0.0761905
        k(   39) = (   0.3635474   0.1514781   0.2596767), wk =   0.0761905
        k(   40) = (   0.3635474   0.1514781   0.3895151), wk =   0.0761905
        k(   41) = (   0.3635474   0.3029562   0.0000000), wk =   0.0380952
        k(   42) = (   0.3635474   0.3029562   0.1298384), wk =   0.0761905
        k(   43) = (   0.3635474   0.3029562   0.2596767), wk =   0.0761905
        k(   44) = (   0.3635474   0.3029562   0.3895151), wk =   0.0761905
        k(   45) = (   0.3635474  -0.4544343   0.0000000), wk =   0.0190476
        k(   46) = (   0.3635474  -0.4544343   0.1298384), wk =   0.0380952
        k(   47) = (   0.3635474  -0.4544343   0.2596767), wk =   0.0380952
        k(   48) = (   0.3635474  -0.4544343   0.3895151), wk =   0.0380952

     total cpu time spent up to now is      232.4 secs

     Self-consistent Calculation

     iteration #  1     ecut=    40.00 Ry     beta=0.70
     CG style diagonalization
     c_bands:  3 eigenvalues not converged
     c_bands:  1 eigenvalues not converged
     c_bands:  2 eigenvalues not converged
     c_bands:  1 eigenvalues not converged
     c_bands:  1 eigenvalues not converged
     c_bands:  3 eigenvalues not converged
     c_bands:  1 eigenvalues not converged
     c_bands:  1 eigenvalues not converged
     c_bands:  2 eigenvalues not converged
     c_bands:  1 eigenvalues not converged
     c_bands:  1 eigenvalues not converged
     c_bands:  1 eigenvalues not converged
     c_bands:  1 eigenvalues not converged
     c_bands:  1 eigenvalues not converged
     c_bands:  1 eigenvalues not converged
     c_bands:  1 eigenvalues not converged
     c_bands:  1 eigenvalues not converged
     c_bands:  1 eigenvalues not converged
     c_bands:  1 eigenvalues not converged
     c_bands:  2 eigenvalues not converged
     c_bands:  1 eigenvalues not converged
     c_bands:  1 eigenvalues not converged
     c_bands:  2 eigenvalues not converged
     c_bands:  1 eigenvalues not converged
     c_bands:  1 eigenvalues not converged
     c_bands:  1 eigenvalues not converged
     c_bands:  2 eigenvalues not converged
     ethr =  1.00E-06,  avg # of iterations = 20.9

     total cpu time spent up to now is      302.0 secs

     total energy              =   -1273.29976652 Ry
     Harris-Foulkes estimate   =   -1287.83055289 Ry
     estimated scf accuracy    <      18.48299215 Ry

     iteration #  2     ecut=    40.00 Ry     beta=0.70
     CG style diagonalization
     ethr =  1.00E-02,  avg # of iterations =  3.9

     total cpu time spent up to now is      314.9 secs

     total energy              =   -1277.51624730 Ry
     Harris-Foulkes estimate   =   -1280.46440516 Ry
     estimated scf accuracy    <       4.17301989 Ry

     iteration #  3     ecut=    40.00 Ry     beta=0.70
     CG style diagonalization
     ethr =  3.48E-03,  avg # of iterations =  3.8

     total cpu time spent up to now is      327.1 secs

     total energy              =   -1279.00090820 Ry
     Harris-Foulkes estimate   =   -1279.16152728 Ry
     estimated scf accuracy    <       0.26684120 Ry

     iteration #  4     ecut=    40.00 Ry     beta=0.70
     CG style diagonalization
     ethr =  2.22E-04,  avg # of iterations =  3.9

     total cpu time spent up to now is      339.9 secs

     total energy              =   -1279.06921223 Ry
     Harris-Foulkes estimate   =   -1279.07426895 Ry
     estimated scf accuracy    <       0.00915654 Ry

     iteration #  5     ecut=    40.00 Ry     beta=0.70
     CG style diagonalization
     c_bands:  1 eigenvalues not converged
     c_bands:  1 eigenvalues not converged
     c_bands:  1 eigenvalues not converged
     c_bands:  1 eigenvalues not converged
     c_bands:  1 eigenvalues not converged
     ethr =  7.63E-06,  avg # of iterations =  4.7

     total cpu time spent up to now is      356.4 secs

     total energy              =   -1279.07421627 Ry
     Harris-Foulkes estimate   =   -1279.07435266 Ry
     estimated scf accuracy    <       0.00021820 Ry

     iteration #  6     ecut=    40.00 Ry     beta=0.70
     CG style diagonalization
     c_bands:  1 eigenvalues not converged
     c_bands:  1 eigenvalues not converged
     c_bands:  1 eigenvalues not converged
     c_bands:  1 eigenvalues not converged
     ethr =  1.82E-07,  avg # of iterations =  4.8

     total cpu time spent up to now is      372.6 secs

     End of self-consistent calculation

          k = 0.0000 0.0000 0.0000 (  2601 PWs)   bands (ev):

   -90.6355 -90.4762 -50.9428 -50.9428 -50.9428 -50.9395 -50.9395 -50.9395
    -7.1365  -6.0078  -6.0078  -4.0913  -4.0913  -4.0913   5.8803   5.8803
     6.4454   6.4454   6.4454   6.6504   6.6504   6.6504   6.8427   6.8427
     8.3296   8.8161   8.8161   9.8397   9.8397   9.8397  12.9762  12.9762
    12.9762  13.2692  13.2692  13.2692  14.2514  14.2514  14.2514  17.3039
    17.3039  17.3039  19.7712  20.0326  25.3633  25.3633  25.3633  26.3796
    26.3796  26.3796  28.1278  30.1148  30.2724  30.2724  32.2971  32.2971
    32.2971  32.5465  32.5465  32.6690  32.6690  32.6690  35.4651  35.4651
    35.4651  35.9306  38.1863  38.1864  38.1864  39.1567  39.1567  39.1567

          k = 0.0000 0.0000 0.1298 (  2657 PWs)   bands (ev):

   -90.7679 -90.6535 -50.9514 -50.9514 -50.9493 -50.9438 -50.9438 -50.9436
    -7.0754  -6.0562  -5.9434  -4.2327  -4.0942  -4.0942   5.9291   5.9389
     6.4405   6.4405   6.4418   6.6395   6.6585   6.6585   6.7900   6.7996
     8.3467   8.6849   8.9802   9.9045   9.9045  10.1148  12.5931  12.5931
    12.8880  13.2926  13.6074  13.6074  14.1000  14.1000  14.1743  16.5940
    17.3100  17.3100  19.9783  20.0384  25.6168  25.6168  25.8709  25.8734
    26.5506  26.5506  28.3721  30.1581  30.2302  31.1287  31.3738  31.3738
    31.5917  32.2025  32.5622  32.8807  33.2650  33.2650  35.4700  35.4700
    35.7563  36.4162  37.5112  37.5949  37.5949  38.3335  38.3335  38.7259

          k = 0.0000 0.0000 0.2597 (  2677 PWs)   bands (ev):

   -90.7962 -90.7352 -50.9519 -50.9519 -50.9513 -50.9501 -50.9459 -50.9459
    -6.9052  -6.1965  -5.7524  -4.5918  -4.1003  -4.1003   6.0821   6.0875
     6.4403   6.4403   6.4716   6.6109   6.6704   6.6770   6.7108   6.7108
     8.2776   8.4345   9.7765  10.0527  10.0527  10.7628  12.1925  12.1925
    12.6014  13.4017  13.7794  13.7794  13.9611  13.9611  14.0071  14.9304
    17.3211  17.3211  19.9790  20.6014  25.2428  26.2355  26.2355  27.0162
    27.0162  27.1487  29.0562  29.6798  30.1624  30.4520  30.5145  30.5145
    31.8457  32.3687  32.6700  32.8486  32.8486  33.0806  34.8544  35.2113
    35.2113  37.1939  37.1940  37.3640  37.4530  37.6542  37.8722  37.8723

          k = 0.0000 0.0000 0.3895 (  2658 PWs)   bands (ev):

   -90.7157 -90.7120 -50.9481 -50.9481 -50.9475 -50.9473 -50.9473 -50.9451
    -6.6652  -6.4110  -5.4411  -5.0332  -4.1052  -4.1052   6.2667   6.3053
     6.4287   6.4287   6.4836   6.5197   6.5227   6.5657   6.7824   6.7824
     8.1990   8.2410  10.1648  10.1648  11.1741  11.5265  11.9931  11.9931
    12.1247  13.0132  13.5071  13.5071  13.5779  13.7925  14.1656  14.1656
    17.3281  17.3281  20.2379  20.6483  25.7638  26.7962  26.7962  27.2815
    27.5381  27.5381  29.5285  30.0374  30.0374  30.0429  30.1708  30.3409
    31.0800  31.6448  31.9934  31.9934  32.4633  32.5337  34.6954  34.6954
    36.2127  36.7061  36.7061  36.8360  37.0006  37.8255  37.9502  37.9502

          k = 0.0000 0.1515 0.0000 (  2653 PWs)   bands (ev):

   -90.7482 -90.6535 -50.9506 -50.9506 -50.9478 -50.9438 -50.9438 -50.9437
    -7.0538  -6.0734  -5.9203  -4.2808  -4.0951  -4.0951   5.9496   5.9610
     6.4449   6.4449   6.4457   6.6363   6.6646   6.6646   6.7745   6.7851
     8.3437   8.6474   9.0641   9.9278   9.9278  10.2075  12.5178  12.5178
    12.8536  13.3060  13.6751  13.6751  14.0546  14.0546  14.1524  16.3650
    17.3139  17.3139  19.9693  20.1410  25.7028  25.7028  25.7372  26.0443
    26.6114  26.6114  28.4583  30.1595  30.2102  31.2108  31.2108  31.3638
    31.4174  32.1667  32.5553  32.8651  33.2836  33.2836  35.4672  35.4672
    35.7520  36.6113  37.3835  37.4975  37.4975  38.2003  38.2003  38.6594

          k = 0.0000 0.1515 0.1298 (  2662 PWs)   bands (ev):

   -90.7896 -90.6637 -50.9523 -50.9514 -50.9495 -50.9480 -50.9432 -50.9418
    -6.9931  -6.0528  -5.9222  -4.2955  -4.2268  -4.0978   6.0007   6.0256
     6.4196   6.4638   6.4787   6.6500   6.6594   6.6650   6.7487   6.7561
     8.3691   8.7837   8.9841  10.0009  10.1246  10.3053  12.1410  12.2986
    13.2066  13.3489  13.6090  13.8038  13.8214  13.9346  14.2512  16.3652
    16.6167  17.3232  19.9996  20.3862  25.7312  25.9336  25.9621  26.1734
    26.5886  26.7818  28.6959  30.0986  30.3778  30.8425  31.1312  31.3674
    31.8258  31.9884  32.1730  32.5560  33.5705  33.5809  35.1401  35.1464
    35.7027  36.7540  36.8099  37.0791  37.1263  37.6696  37.9307  38.3241

          k = 0.0000 0.1515 0.2597 (  2666 PWs)   bands (ev):

   -90.7609 -90.7163 -50.9505 -50.9502 -50.9498 -50.9483 -50.9459 -50.9440
    -6.8251  -6.1435  -5.7723  -4.6084  -4.2848  -4.1040   6.1273   6.1629
     6.3848   6.4784   6.5358   6.6211   6.6478   6.6829   6.7134   6.7376
     8.2537   8.7261   9.5728  10.1675  10.3584  10.7853  11.7976  11.9596
    13.1298  13.1998  13.6617  13.6875  13.8027  14.0108  14.2563  14.9634
    16.4031  17.3377  20.1368  20.8589  25.5071  26.1704  26.5198  26.6214
    27.2419  27.5990  29.3186  29.3238  30.2170  30.2388  30.5582  31.4210
    31.6995  31.8287  32.4786  33.1261  33.1414  33.5270  34.1703  34.5436
    35.1906  35.6151  36.7615  37.0356  37.2324  37.6444  38.0008  38.0719

          k = 0.0000 0.1515 0.3895 (  2658 PWs)   bands (ev):

   -90.7314 -90.6999 -50.9494 -50.9488 -50.9487 -50.9465 -50.9463 -50.9435
    -6.5935  -6.3386  -5.4663  -5.0531  -4.2921  -4.1089   6.2745   6.3292
     6.3608   6.4362   6.4966   6.5812   6.6000   6.6194   6.7882   6.7981
     8.1261   8.5866  10.1343  10.3030  11.2089  11.2696  11.7558  11.7771
    12.7775  12.9191  13.0191  13.4461  13.7822  14.0092  14.0614  14.3013
    16.4157  17.3473  20.4734  20.8808  25.8619  26.6449  27.0990  27.1639
    27.3611  27.7365  29.6080  29.6527  30.0181  30.2368  30.3565  30.9233
    31.1402  31.4464  31.8714  32.2413  32.4974  33.7567  34.0327  34.7525
    35.0147  35.0709  36.6064  37.0920  37.2347  37.4266  38.1932  38.2086

          k = 0.0000 0.3030 0.0000 (  2677 PWs)   bands (ev):

   -90.7966 -90.7334 -50.9516 -50.9516 -50.9506 -50.9478 -50.9478 -50.9475
    -6.8304  -6.2610  -5.6613  -4.7366  -4.1023  -4.1023   6.1378   6.1565
     6.4350   6.4350   6.4863   6.5953   6.6178   6.6301   6.7363   6.7363
     8.2444   8.3551  10.0987  10.0987  10.1856  11.0156  12.1016  12.1016
    12.4607  13.4537  13.6701  13.6701  13.9395  14.0473  14.0473  14.3008
    17.3204  17.3204  20.0334  20.6988  25.2542  26.4568  26.4568  27.2068
    27.2068  27.5728  29.2488  29.3603  30.1652  30.3058  30.3058  30.3691
    31.6375  32.2904  32.5398  32.5398  32.5839  33.1914  34.8811  35.0183
    35.0183  37.0148  37.0149  37.1070  37.3907  37.8225  37.8930  37.8932

          k = 0.0000 0.3030 0.1298 (  2660 PWs)   bands (ev):

   -90.7343 -90.7087 -50.9501 -50.9488 -50.9484 -50.9478 -50.9461 -50.9435
    -6.7721  -6.2162  -5.6792  -4.7490  -4.2416  -4.1051   6.1703   6.2024
     6.3871   6.4663   6.5387   6.5955   6.6296   6.6453   6.7420   6.7541
     8.2238   8.5724   9.8945  10.1920  10.4611  10.9782  11.7888  11.9281
    12.9190  13.1817  13.5941  13.6837  13.9207  14.0278  14.2215  14.3427
    16.6362  17.3404  20.1786  20.8864  25.4344  26.3664  26.6667  26.9404
    27.3686  27.7497  29.1685  29.5054  30.1547  30.2099  30.3339  31.1381
    31.5549  31.6127  32.3685  32.7795  33.0032  33.6671  34.4226  34.4862
    35.1442  35.5964  36.5238  37.2079  37.2755  37.7737  37.7782  38.2181

          k = 0.0000 0.3030 0.2597 (  2658 PWs)   bands (ev):

   -90.7453 -90.6911 -50.9495 -50.9492 -50.9482 -50.9462 -50.9460 -50.9436
    -6.6198  -6.1193  -5.6891  -4.8163  -4.5566  -4.1113   6.2434   6.2841
     6.3231   6.4796   6.5202   6.6118   6.6931   6.7254   6.7589   6.7711
     8.0665   9.3588   9.7232  10.4303  10.7337  10.9587  11.6014  11.6421
    12.6339  13.3979  13.4529  13.6214  13.8554  14.0867  14.4080  14.4271
    15.0472  17.3594  20.5554  21.2482  25.7403  26.2717  26.6365  27.2314
    27.8056  27.8301  29.0315  29.4685  29.9586  30.2042  30.2699  31.4933
    31.5387  32.4251  32.6207  33.0213  33.4499  33.5031  33.6085  33.8355
    34.3030  34.4578  36.4213  36.7023  37.0724  37.5532  37.8948  38.3010

          k = 0.0000 0.3030 0.3895 (  2654 PWs)   bands (ev):

   -90.7119 -90.6989 -50.9498 -50.9490 -50.9489 -50.9483 -50.9423 -50.9422
    -6.4524  -6.1115  -5.5187  -5.1344  -4.6928  -4.1163   6.2825   6.3414
     6.3596   6.4274   6.4558   6.6597   6.7058   6.7627   6.8131   6.8181
     7.9170   9.6336  10.1181  10.6756  11.0037  11.3713  11.4038  11.7457
    12.1741  12.9464  13.2987  13.3569  13.9123  13.9973  14.0977  14.4977
    14.5267  17.3663  21.0312  21.3702  25.8237  26.1387  26.9761  27.3186
    27.9022  28.3034  29.2417  29.3199  29.6208  30.3232  30.6591  31.2585
    31.3175  31.9030  32.2844  32.7438  33.0103  33.1005  33.9354  34.1492
    34.2993  35.6185  36.0401  36.5588  36.6939  37.2238  37.4823  37.7891

          k = 0.0000-0.4544 0.0000 (  2666 PWs)   bands (ev):

   -90.7343 -90.7343 -50.9485 -50.9485 -50.9485 -50.9485 -50.9475 -50.9475
    -6.5362  -6.5362  -5.2466  -5.2466  -4.1059  -4.1059   6.3608   6.3608
     6.4244   6.4244   6.4279   6.4279   6.5428   6.5428   6.7931   6.7931
     8.1981   8.1981  10.1810  10.1810  11.8010  11.8010  11.9695  11.9695
    12.0988  12.0988  13.4641  13.4641  13.6813  13.6813  14.1899  14.1899
    17.3276  17.3276  20.4487  20.4487  26.4750  26.4750  26.8841  26.8841
    27.6345  27.6345  29.9744  29.9744  30.1103  30.1103  30.5756  30.5756
    30.7050  30.7050  31.8371  31.8371  32.4390  32.4390  34.6071  34.6071
    36.6286  36.6286  36.8424  36.8424  37.1616  37.1616  37.9688  37.9687

          k = 0.0000-0.4544 0.1298 (  2666 PWs)   bands (ev):

   -90.7352 -90.7347 -50.9509 -50.9508 -50.9481 -50.9481 -50.9455 -50.9455
    -6.5092  -6.4556  -5.2799  -5.2472  -4.2460  -4.1087   6.3162   6.3703
     6.3817   6.4121   6.4369   6.5558   6.5855   6.5922   6.7971   6.8049
     8.1300   8.4666  10.1689  10.2839  11.3251  11.7952  11.8078  12.0335
    12.1569  12.5924  12.9778  13.4239  13.7823  13.9543  14.1109  14.2814
    16.6408  17.3405  20.6057  20.6473  26.3027  26.6206  26.8149  27.1154
    27.4809  27.7732  29.6941  29.9194  30.0585  30.4471  30.5752  30.5999
    30.8455  31.2842  31.3100  32.0204  32.4347  33.5935  34.0999  34.6763
    35.1878  35.2955  37.0065  37.2186  37.2349  37.3898  38.1081  38.3532

          k = 0.0000-0.4544 0.2597 (  2658 PWs)   bands (ev):

   -90.7157 -90.7150 -50.9499 -50.9499 -50.9495 -50.9494 -50.9424 -50.9423
    -6.4428  -6.2266  -5.3605  -5.2680  -4.5824  -4.1150   6.2953   6.3502
     6.3911   6.3921   6.4435   6.6534   6.6754   6.7188   6.8121   6.8263
     7.9564   9.2796  10.1788  10.5801  11.0221  11.4832  11.7712  11.9751
    12.2570  12.3167  13.1703  13.3416  13.9605  13.9737  14.0657  14.4828
    15.0634  17.3619  21.0357  21.1135  25.9730  26.4508  26.8792  27.1782
    27.7796  28.1556  29.3436  29.6021  29.6096  30.3983  30.6814  30.9214
    31.1195  32.0415  32.1766  32.4931  33.2084  33.3413  33.4329  34.1252
    34.2705  35.3535  36.3058  36.8225  36.8834  37.3510  37.5649  38.4682

          k = 0.0000-0.4544 0.3895 (  2662 PWs)   bands (ev):

   -90.7264 -90.7264 -50.9506 -50.9505 -50.9492 -50.9492 -50.9434 -50.9432
    -6.3817  -5.9169  -5.4330  -5.3869  -4.8706  -4.1199   6.2512   6.3752
     6.3777   6.4200   6.4350   6.6874   6.7339   6.8175   6.8302   6.8463
     7.7930  10.1302  10.2176  11.0298  11.2484  11.3518  11.6696  11.7950
    11.9432  12.2319  12.8644  13.2868  13.8589  13.8813  14.1015  14.1107
    14.6064  17.3705  21.4961  21.5163  25.5097  25.9254  26.5020  28.2399
    28.6518  28.6736  29.0466  29.0720  29.3176  30.3155  30.5695  31.2193
    31.3246  31.5172  31.5526  32.4961  33.1835  33.6135  34.0242  34.3700
    35.4294  35.6351  35.9273  36.3544  36.6533  36.9039  37.3933  37.5866

          k = 0.1818 0.0000 0.0000 (  2661 PWs)   bands (ev):

   -90.7943 -90.6526 -50.9520 -50.9520 -50.9502 -50.9438 -50.9438 -50.9438
    -7.0187  -6.1019  -5.8820  -4.3574  -4.0965  -4.0965   5.9821   5.9923
     6.4426   6.4426   6.4509   6.6311   6.6754   6.6754   6.7495   6.7607
     8.3321   8.5898   9.2143   9.9611   9.9611  10.3486  12.4141  12.4141
    12.7951  13.3280  13.7651  13.7651  13.9840  13.9840  14.1173  16.0015
    17.3150  17.3150  19.9620  20.2734  25.5519  25.8384  25.8384  26.3204
    26.7079  26.7079  28.5991  30.1600  30.1619  30.9937  30.9937  31.0328
    31.8549  32.1015  32.5439  32.8243  33.2414  33.2414  35.4421  35.4421
    35.6189  36.9009  37.3464  37.4008  37.4009  38.0107  38.0403  38.0404

          k = 0.1818 0.0000 0.1298 (  2667 PWs)   bands (ev):

   -90.7737 -90.7065 -50.9521 -50.9509 -50.9505 -50.9484 -50.9443 -50.9436
    -6.9582  -6.0729  -5.8911  -4.3689  -4.2323  -4.0992   6.0286   6.0574
     6.4139   6.4719   6.4903   6.6477   6.6576   6.6726   6.7320   6.7394
     8.3497   8.7531   9.1109  10.0369  10.1662  10.4210  12.0464  12.2118
    13.1943  13.3479  13.6615  13.7559  13.8652  13.8719  14.2463  16.0082
    16.6169  17.3270  20.0106  20.5129  25.7131  25.9045  26.0619  26.2960
    26.8340  26.8783  28.8313  29.9609  30.2849  30.6786  31.0878  31.3808
    31.9304  32.0052  32.1469  32.5387  33.5298  33.5617  34.9066  35.0275
    35.6377  36.5008  36.8505  37.0851  37.1831  37.6333  37.9465  38.2608

          k = 0.1818 0.0000 0.2597 (  2659 PWs)   bands (ev):

   -90.7356 -90.7054 -50.9491 -50.9487 -50.9486 -50.9469 -50.9464 -50.9439
    -6.7916  -6.1264  -5.7746  -4.6187  -4.3555  -4.1054   6.1462   6.1893
     6.3722   6.4864   6.5545   6.6043   6.6612   6.6914   6.7158   6.7426
     8.2229   8.8834   9.5246  10.2141  10.4379  10.8035  11.7329  11.8813
    13.0935  13.2549  13.6183  13.7164  13.7402  14.0308  14.3000  14.9728
    16.0527  17.3439  20.2033  20.9528  25.6052  26.1451  26.5434  26.6381
    27.3387  27.7270  29.2211  29.4091  30.1620  30.2098  30.4337  31.6317
    31.6697  32.0091  32.5456  33.1362  33.1515  33.5196  34.0168  34.3377
    34.9369  35.2979  36.7351  36.8702  37.1680  37.7371  38.0952  38.1411

          k = 0.1818 0.0000 0.3895 (  2660 PWs)   bands (ev):

   -90.7364 -90.7054 -50.9504 -50.9495 -50.9490 -50.9466 -50.9454 -50.9440
    -6.5662  -6.3055  -5.4767  -5.0621  -4.3659  -4.1103   6.2803   6.3384
     6.3423   6.4360   6.4889   6.5991   6.6348   6.6373   6.7899   6.8022
     8.0891   8.7516  10.1262  10.3607  11.1308  11.2954  11.7009  11.7402
    12.7714  12.9162  13.0176  13.4239  13.8276  14.0261  14.0352  14.3539
    16.0660  17.3525  20.5667  20.9736  25.8771  26.6498  27.0095  27.2282
    27.3505  27.8226  29.5612  29.5675  29.9699  30.2440  30.4225  30.9288
    31.1654  31.7518  32.1114  32.2857  32.5113  33.8234  33.8694  34.5527
    34.6975  35.0018  36.5949  36.8907  37.1437  37.4606  37.9983  38.7265

          k = 0.1818 0.1515 0.0000 (  2672 PWs)   bands (ev):

   -90.7700 -90.7403 -50.9531 -50.9513 -50.9498 -50.9490 -50.9468 -50.9430
    -6.9370  -6.0695  -5.8872  -4.3774  -4.2739  -4.1001   6.0448   6.0764
     6.4072   6.4757   6.5011   6.6507   6.6528   6.6708   6.7244   6.7353
     8.3375   8.8280   9.0861  10.0626  10.2193  10.4580  11.9777  12.1551
    13.2650  13.3322  13.6338  13.7248  13.8313  13.8936  14.2596  16.0081
    16.3933  17.3284  20.0263  20.5876  25.7655  25.9231  26.1388  26.2203
    26.9374  26.9808  28.9111  29.8488  30.2594  30.5853  31.1356  31.5136
    31.8935  31.9993  32.1201  32.5364  33.5514  33.5587  34.7533  34.9104
    35.5787  36.2645  36.8372  37.0053  37.1748  37.6127  37.9773  38.2417

          k = 0.1818 0.1515 0.1298 (  2665 PWs)   bands (ev):

   -90.7668 -90.7055 -50.9518 -50.9502 -50.9497 -50.9490 -50.9443 -50.9431
    -6.8760  -6.0115  -5.9229  -4.3807  -4.2933  -4.2301   6.1069   6.1151
     6.4372   6.4577   6.5373   6.6226   6.6810   6.6851   6.7079   6.7186
     8.5516   8.8125   9.0131  10.1280  10.3923  10.5172  11.4048  12.7145
    12.9764  13.3627  13.5925  13.6972  13.8085  14.0379  14.1567  16.0198
    16.3988  16.6379  20.1150  20.7935  25.9415  26.0409  26.3086  26.4245
    26.5725  27.3750  29.1183  29.7312  29.9227  30.9684  31.3809  31.4979
    31.7809  32.1135  32.2150  32.4415  33.2973  33.4142  34.2699  34.4236
    35.8183  36.4901  36.7028  36.7813  37.0713  37.2839  37.3941  38.3624

          k = 0.1818 0.1515 0.2597 (  2655 PWs)   bands (ev):

   -90.7523 -90.6638 -50.9502 -50.9492 -50.9472 -50.9471 -50.9448 -50.9426
    -6.7087  -6.0555  -5.8094  -4.6257  -4.3749  -4.2896   6.2133   6.2216
     6.4256   6.4624   6.5892   6.6116   6.6408   6.6997   6.7076   6.7542
     8.5895   8.8318   9.4344  10.2745  10.5673  10.8834  11.0078  12.6331
    12.9853  13.1016  13.5001  13.7340  13.9306  13.9809  14.1734  14.9981
    16.0635  16.4272  20.3693  21.1752  25.8343  26.3099  26.7372  26.7855
    26.9821  28.1052  29.1173  29.4261  29.6177  30.8439  31.0482  31.6249
    31.9847  32.0171  32.2115  32.8327  33.0169  33.3716  33.5108  33.8942
    35.4836  35.7583  36.2185  36.4578  36.7684  37.1128  37.7916  37.8683

          k = 0.1818 0.1515 0.3895 (  2655 PWs)   bands (ev):

   -90.7131 -90.6982 -50.9498 -50.9491 -50.9476 -50.9471 -50.9445 -50.9435
    -6.4797  -6.2436  -5.4964  -5.0777  -4.3777  -4.3027   6.3162   6.3389
     6.4088   6.4330   6.5177   6.5584   6.6530   6.6881   6.7837   6.8069
     8.4992   8.7034  10.0305  10.3247  11.0422  11.0967  11.4230  12.4747
    12.7050  13.0132  13.0550  13.2454  13.9117  13.9878  14.0968  14.2045
    16.0796  16.4346  20.7774  21.1877  26.0244  26.7182  27.0608  27.1773
    27.4670  27.6759  29.4916  29.6746  30.1623  30.4131  30.7498  31.3170
    31.4343  31.5619  31.6194  31.9627  32.9121  33.2681  33.8644  34.1730
    35.2406  35.6904  36.1772  36.4497  36.7807  36.9910  37.6555  37.7803

          k = 0.1818 0.3030 0.0000 (  2656 PWs)   bands (ev):

   -90.7411 -90.6827 -50.9493 -50.9490 -50.9481 -50.9469 -50.9455 -50.9427
    -6.7196  -6.1779  -5.6908  -4.7633  -4.3605  -4.1074   6.1936   6.2361
     6.3598   6.4766   6.5696   6.5707   6.6570   6.6716   6.7451   6.7643
     8.1707   8.8298   9.8171  10.2734  10.5828  10.9548  11.6939  11.7982
    12.9689  13.1409  13.5353  13.7511  13.8147  14.0543  14.3169  14.3708
    16.0588  17.3473  20.3102  21.0266  25.5750  26.3308  26.7543  26.8592
    27.5223  27.8261  29.1219  29.5633  30.1119  30.1842  30.2114  31.4588
    31.5296  31.9162  32.4745  32.8398  32.9563  33.7823  34.1269  34.3122
    34.7211  35.0349  36.5208  36.8767  37.1483  37.6245  37.9164  38.3438

          k = 0.1818 0.3030 0.1298 (  2657 PWs)   bands (ev):

   -90.7470 -90.6791 -50.9498 -50.9490 -50.9470 -50.9469 -50.9465 -50.9433
    -6.6578  -6.1282  -5.7122  -4.7703  -4.3712  -4.2491   6.2388   6.2540
     6.4068   6.4590   6.5709   6.5979   6.6330   6.6941   6.7326   6.7740
     8.4553   8.7887   9.7263  10.4195  10.5263  10.9804  11.1187  12.4620
    12.9058  13.1049  13.4182  13.7645  13.9497  13.9865  14.2112  14.4004
    16.0671  16.6555  20.4423  21.1907  25.7360  26.4466  26.8818  26.9119
    27.2738  28.0091  29.1516  29.4466  29.7966  30.5866  30.9037  31.4186
    31.7011  31.9188  32.1076  32.5445  33.0767  33.3578  33.9174  34.1174
    35.2465  35.4931  36.1746  36.4548  36.8769  37.0785  37.7463  37.9502

[...]

          k = 0.1687 0.2811 0.2409 (  4424 PWs)   bands (ev):

   -98.4317 -98.4288 -57.2326 -57.2324 -57.2320 -57.2292 -57.2263 -57.2236
   -12.3576 -12.1261 -11.9794 -11.4491 -11.3461 -11.2305   0.5742   0.5798
     0.6224   0.6320   0.6612   0.7004   0.7139   0.7217   0.7367   0.7507
     3.4395   3.8844   4.1659   4.8358   4.9599   5.1576   5.3219   6.2266
     6.2832   6.5377   6.6618   6.7903   6.9789   7.0078   7.0975   7.3379
     7.7369   8.3895  14.2835  14.4803  20.1480  20.3484  20.5762  20.8244
    20.9271  21.4947  23.0445  23.1148  23.7741  24.0671  24.4465  24.8387
    24.9493  25.0649  25.3226  25.5908  25.8710  26.1898  26.4251  26.5628
    27.7781  27.9673  28.7534  28.8841  29.2305  29.5925  29.8838  29.9768

          k = 0.1687 0.2811 0.3614 (  4438 PWs)   bands (ev):

   -98.4425 -98.4421 -57.2339 -57.2337 -57.2325 -57.2316 -57.2287 -57.2276
   -12.2705 -12.1153 -11.8579 -11.6229 -11.4243 -11.2351   0.5871   0.5956
     0.6081   0.6182   0.6439   0.7125   0.7262   0.7382   0.7475   0.7593
     3.4046   4.1315   4.5635   4.8074   5.0676   5.2674   5.5288   6.0867
     6.1327   6.3740   6.5661   6.6366   6.9294   7.0178   7.0269   7.1101
     7.3685   8.3943  14.5251  14.6210  20.0399  20.3438  20.6752  20.8704
    21.2533  21.3655  23.1616  23.2734  23.8242  24.1522  24.4931  24.6751
    24.8433  25.0104  25.1765  25.4834  25.9328  26.2472  26.5627  26.8304
    27.6089  28.0870  28.3276  28.6193  29.2448  29.4042  29.5930  29.9466

          k = 0.1687-0.4216 0.0000 (  4428 PWs)   bands (ev):

   -98.4328 -98.4326 -57.2316 -57.2316 -57.2310 -57.2308 -57.2272 -57.2271
   -12.3800 -12.3033 -11.7316 -11.7099 -11.2270 -11.0973   0.5979   0.5994
     0.6113   0.6117   0.6264   0.6960   0.6961   0.6980   0.7557   0.7579
     2.9957   3.4596   4.6985   4.8317   5.3286   5.6698   5.7039   5.7574
     5.7986   6.2926   6.3261   6.7091   6.9299   7.0201   7.0430   7.1893
     8.3822   9.1481  14.1747  14.1939  19.9732  20.3383  20.6819  20.8076
    21.1809  21.2171  23.4440  23.4723  23.5537  23.6545  24.1360  24.2511
    24.5656  24.7336  24.9111  25.1892  25.8024  26.3830  27.1958  27.6271
    27.7630  27.8592  29.2296  29.4446  29.4511  29.7653  30.1162  30.4691

          k = 0.1687-0.4216 0.1205 (  4414 PWs)   bands (ev):

   -98.4209 -98.4207 -57.2295 -57.2294 -57.2275 -57.2274 -57.2269 -57.2268
   -12.3288 -12.2917 -11.7307 -11.7208 -11.2289 -11.1676   0.5967   0.5975
     0.6117   0.6140   0.6453   0.6741   0.7090   0.7137   0.7564   0.7570
     3.2217   3.4453   4.7211   4.7783   5.3209   5.4010   5.7317   5.7666
     6.0871   6.2117   6.4672   6.5827   6.9803   7.0164   7.0541   7.1257
     8.3860   8.7419  14.2808  14.2886  20.1084  20.2815  20.7830  20.9069
    21.0819  21.1376  23.3377  23.4144  23.9593  24.0981  24.1467  24.3454
    24.4221  24.6520  24.8798  25.0675  26.0664  26.0906  26.9827  27.0398
    28.1973  28.4473  29.0168  29.0827  29.4024  29.6114  29.7235  29.7869

          k = 0.1687-0.4216 0.2409 (  4434 PWs)   bands (ev):

   -98.4392 -98.4388 -57.2343 -57.2342 -57.2298 -57.2296 -57.2283 -57.2283
   -12.2641 -12.1861 -11.7481 -11.7317 -11.3521 -11.2341   0.5946   0.5963
     0.6091   0.6116   0.6489   0.6953   0.7251   0.7331   0.7558   0.7567
     3.4111   3.8563   4.6700   4.7562   5.2473   5.3155   5.7402   5.7960
     6.1684   6.1940   6.5472   6.5758   6.9576   7.0170   7.0264   7.1033
     7.7433   8.3927  14.5144  14.5213  20.0994  20.3983  20.6624  20.8945
    21.1706  21.2711  23.2271  23.2943  23.9788  24.1969  24.4709  24.7030
    24.7179  24.8479  24.9600  25.6292  25.7067  25.8634  26.7117  26.8006
    27.9084  28.2600  28.8824  28.9726  29.0867  29.1968  29.5633  29.6750

          k = 0.1687-0.4216 0.3614 (  4442 PWs)   bands (ev):

   -98.4462 -98.4460 -57.2338 -57.2337 -57.2323 -57.2322 -57.2297 -57.2296
   -12.2392 -11.9893 -11.7726 -11.7540 -11.5597 -11.2380   0.5904   0.5908
     0.6119   0.6123   0.6311   0.7320   0.7342   0.7484   0.7544   0.7614
     3.3823   4.5300   4.5895   5.0033   5.2701   5.3507   5.6465   5.8054
     6.0506   6.1653   6.4072   6.5695   6.8772   6.8891   7.0428   7.0471
     7.1113   8.3976  14.7301  14.7328  19.8200  20.2753  20.4810  21.2051
    21.5092  21.5244  23.1435  23.1977  23.4371  24.4230  24.5707  24.6432
    24.8624  24.9082  25.1028  25.9874  26.2400  26.2917  26.3626  27.1668
    27.2301  27.7294  28.0701  28.7772  29.2009  29.3298  29.4864  30.3061

          k = 0.3373 0.0000 0.0000 (  4432 PWs)   bands (ev):

   -98.4482 -98.4219 -57.2321 -57.2321 -57.2319 -57.2306 -57.2306 -57.2247
   -12.4869 -12.3196 -11.8647 -11.5371 -11.0963 -11.0963   0.5664   0.5813
     0.6442   0.6442   0.6529   0.6566   0.6630   0.6792   0.7466   0.7466
     3.0424   3.0617   4.6899   4.6899   4.8824   5.3817   5.9353   5.9510
     5.9510   6.6304   6.7112   6.8009   6.8009   6.8936   7.0829   7.0829
     9.1417   9.1417  13.9077  14.0046  19.5952  20.7458  20.7458  20.7635
    20.9010  20.9010  23.0394  23.5795  23.6132  23.7569  23.7569  23.8825
    24.7681  24.9314  24.9314  25.1173  25.8114  25.8352  28.0091  28.0521
    28.0521  29.2574  29.2577  29.6944  29.7774  29.8307  29.8750  30.5232

          k = 0.3373 0.0000 0.1205 (  4425 PWs)   bands (ev):

   -98.4391 -98.4190 -57.2335 -57.2310 -57.2306 -57.2289 -57.2280 -57.2244
   -12.4565 -12.2897 -11.8716 -11.5420 -11.1649 -11.0965   0.5693   0.5830
     0.6238   0.6351   0.6515   0.6757   0.6830   0.6937   0.7473   0.7491
     3.0299   3.2715   4.6158   4.7522   4.9938   5.3137   5.7156   5.8491
     6.2708   6.4872   6.6200   6.7670   6.8506   7.0261   7.0412   7.1298
     8.7340   9.1451  13.9972  14.1131  19.7005  20.5477  20.6893  20.8963
    20.9745  21.0398  23.1247  23.5753  23.5826  23.6457  23.9449  24.1442
    24.6020  24.7214  25.1863  25.2298  25.8298  26.2822  27.6157  27.6180
    27.9749  28.4178  28.7595  29.6501  29.7690  30.0705  30.1269  30.2888

          k = 0.3373 0.0000 0.2409 (  4426 PWs)   bands (ev):

   -98.4350 -98.4261 -57.2320 -57.2314 -57.2311 -57.2289 -57.2280 -57.2262
   -12.3939 -12.1927 -11.8822 -11.5603 -11.3403 -11.0980   0.5772   0.5881
     0.5998   0.6248   0.6345   0.7019   0.7193   0.7256   0.7512   0.7533
     2.9782   3.8874   4.5395   4.9257   5.1478   5.1840   5.6629   5.6693
     6.1260   6.5459   6.5564   6.6924   6.9731   6.9804   7.0794   7.2400
     7.7312   9.1518  14.2209  14.3535  19.8228  20.2413  20.6514  20.9857
    21.2748  21.4211  23.0472  23.2611  23.3863  23.5949  24.0157  24.6625
    24.8208  25.3283  25.4166  25.8610  26.0059  26.1554  26.8318  26.9940
    27.4254  27.5634  28.8008  29.0860  29.3051  29.6529  30.1945  30.2866

          k = 0.3373 0.0000 0.3614 (  4429 PWs)   bands (ev):

   -98.4409 -98.4279 -57.2338 -57.2337 -57.2317 -57.2276 -57.2269 -57.2267
   -12.3496 -12.0748 -11.8362 -11.6583 -11.4859 -11.0992   0.5841   0.5854
     0.5927   0.6155   0.6229   0.7156   0.7340   0.7532   0.7588   0.7633
     2.9348   4.4967   4.6153   5.1433   5.2107   5.3474   5.5451   5.7211
     5.7955   6.2791   6.4666   6.6344   6.8955   6.9619   7.0673   7.0986
     7.3004   9.1560  14.4552  14.5182  19.5754  20.2641  20.6286  21.1208
    21.6967  21.7989  22.9698  22.9863  23.0849  23.5837  24.1448  24.9071
    24.9409  25.2291  25.4435  26.0219  26.2144  26.2200  26.3950  27.0578
    27.4920  27.8945  28.5313  28.6520  28.8883  29.3272  29.5435  30.2745

          k = 0.3373 0.1405 0.0000 (  4424 PWs)   bands (ev):

   -98.4355 -98.4207 -57.2321 -57.2313 -57.2304 -57.2301 -57.2280 -57.2238
   -12.4467 -12.2784 -11.8738 -11.5437 -11.1885 -11.0967   0.5703   0.5835
     0.6195   0.6334   0.6490   0.6803   0.6897   0.6977   0.7477   0.7499
     3.0225   3.3489   4.6003   4.7742   5.0213   5.2915   5.6963   5.8188
     6.3243   6.4299   6.6149   6.7560   6.8721   7.0288   7.0399   7.1481
     8.5970   9.1464  14.0275  14.1491  19.7328  20.5257  20.6233  20.9475
    20.9996  21.0893  23.1369  23.5273  23.5624  23.6238  23.9553  24.2673
    24.6537  24.7296  25.2410  25.2636  25.8346  26.3284  27.4919  27.5817
    27.8406  28.2354  28.7155  29.6101  29.6714  30.0856  30.1902  30.2213

          k = 0.3373 0.1405 0.1205 (  4421 PWs)   bands (ev):

   -98.4339 -98.4188 -57.2334 -57.2311 -57.2302 -57.2266 -57.2263 -57.2257
   -12.4106 -12.2530 -11.8809 -11.5477 -11.1904 -11.1659   0.5731   0.5856
     0.6216   0.6333   0.6577   0.6687   0.6975   0.7120   0.7447   0.7530
     3.2451   3.3315   4.5542   4.8309   5.0398   5.3002   5.4037   6.1039
     6.2624   6.4957   6.6057   6.6198   6.9647   7.0127   7.0615   7.1072
     8.5998   8.7391  14.1150  14.2546  19.8455  20.5226  20.7479  20.8428
    20.9271  21.1903  23.2229  23.3227  23.8039  23.8505  24.1335  24.2939
    24.5824  24.8626  24.9725  25.2892  26.0952  26.1624  27.0758  27.1673
    28.2271  28.4001  28.6931  29.3362  29.3894  29.6598  29.7474  30.0630

          k = 0.3373 0.1405 0.2409 (  4429 PWs)   bands (ev):

   -98.4359 -98.4324 -57.2340 -57.2324 -57.2305 -57.2303 -57.2269 -57.2260
   -12.3335 -12.1652 -11.8931 -11.5624 -11.3476 -11.1934   0.5807   0.5904
     0.6130   0.6258   0.6434   0.7017   0.7164   0.7327   0.7425   0.7568
     3.2892   3.8724   4.4988   4.8901   5.0227   5.2050   5.4243   6.0964
     6.1966   6.5240   6.5733   6.6502   6.9629   7.0152   7.0402   7.1406
     7.7378   8.6078  14.3434  14.4858  20.0196  20.3607  20.6581  20.8685
    21.1724  21.3565  23.1285  23.2013  23.8507  23.9511  24.2926  24.6356
    24.8789  24.9825  25.3312  25.5162  25.8776  26.0442  26.6810  26.9041
    27.7336  27.9774  28.5974  28.7518  29.3735  29.5539  29.7110  29.9836

          k = 0.3373 0.1405 0.3614 (  4435 PWs)   bands (ev):

   -98.4427 -98.4366 -57.2338 -57.2336 -57.2319 -57.2290 -57.2287 -57.2283
   -12.2803 -12.0519 -11.8439 -11.6534 -11.5058 -11.1964   0.5869   0.5936
     0.6089   0.6178   0.6241   0.7259   0.7309   0.7456   0.7510   0.7626
     3.2544   4.4693   4.5673   4.9376   5.1151   5.2657   5.5883   5.9505
     6.0121   6.3337   6.5286   6.5966   6.8967   6.9586   7.0437   7.0593
     7.1658   8.6123  14.5839  14.6504  19.8218  20.2832  20.5830  21.0607
    21.5301  21.5475  23.0544  23.1923  23.4941  24.1906  24.3318  24.6598
    24.8155  25.0735  25.2176  25.8673  26.0435  26.3254  26.5047  27.1276
    27.3619  27.9179  28.1038  28.6545  29.0293  29.3957  29.4677  30.3522

          k = 0.3373 0.2811 0.0000 (  4432 PWs)   bands (ev):

   -98.4458 -98.4266 -57.2336 -57.2328 -57.2325 -57.2293 -57.2282 -57.2261
   -12.3754 -12.1486 -11.8793 -11.5759 -11.4050 -11.0986   0.5795   0.5908
     0.5935   0.6206   0.6297   0.7081   0.7267   0.7383   0.7543   0.7544
     2.9606   4.1512   4.5241   5.0002   5.1627   5.1919   5.6103   5.6819
     6.0050   6.5162   6.5897   6.6686   6.9588   7.0164   7.0889   7.2671
     7.3552   9.1538  14.3072  14.4258  19.7597  20.1916  20.7888  20.8954
    21.4233  21.5707  23.0088  23.1523  23.3023  23.5903  24.0512  24.7733
    24.8659  25.3928  25.5244  25.8109  26.1310  26.5872  26.5887  26.7011
    27.2182  27.5543  28.8930  28.9166  29.0869  29.5315  29.8068  30.3013

          k = 0.3373 0.2811 0.1205 (  4433 PWs)   bands (ev):

   -98.4378 -98.4370 -57.2344 -57.2337 -57.2308 -57.2306 -57.2270 -57.2269
   -12.3276 -12.1296 -11.8877 -11.5750 -11.4138 -11.1700   0.5820   0.5922
     0.6085   0.6241   0.6301   0.7156   0.7210   0.7377   0.7452   0.7586
     3.1929   4.1426   4.4938   4.9319   5.0512   5.1816   5.4837   6.0066
     6.0935   6.5179   6.6022   6.6440   6.9542   7.0205   7.0556   7.1785
     7.3632   8.7465  14.3984  14.5259  19.9321  20.2539  20.7625  20.8335
    21.3761  21.4387  23.0951  23.1437  23.6714  23.9884  24.1364  24.6907
    24.8704  25.1420  25.3395  25.5927  26.0714  26.3998  26.5179  26.9251
    27.3553  27.8334  28.4410  28.7512  29.3169  29.4508  29.6327  30.2774

          k = 0.3373 0.2811 0.2409 (  4437 PWs)   bands (ev):

   -98.4468 -98.4371 -57.2339 -57.2332 -57.2310 -57.2307 -57.2302 -57.2279
   -12.2030 -12.0678 -11.9110 -11.5736 -11.4364 -11.3579   0.5888   0.5941
     0.6087   0.6142   0.6803   0.7042   0.7297   0.7339   0.7476   0.7565
     3.8452   4.1272   4.4668   4.6800   4.8499   5.3597   5.5133   6.1948
     6.2566   6.5096   6.5297   6.7398   6.9447   6.9812   7.0095   7.0260
     7.3725   7.7501  14.6404  14.7583  20.2875  20.4203  20.7009  20.7751
    20.9596  21.1532  23.3181  23.4489  24.0941  24.3305  24.4089  24.5359
    24.8431  25.2833  25.4039  25.6830  25.8627  26.1338  26.3669  26.7296
    27.6454  27.8970  28.1536  28.7799  29.2200  29.4135  29.6146  29.7256

          k = 0.3373 0.2811 0.3614 (  4441 PWs)   bands (ev):

   -98.4557 -98.4359 -57.2358 -57.2327 -57.2312 -57.2308 -57.2305 -57.2292
   -12.0922 -11.9853 -11.8714 -11.6402 -11.5518 -11.4453   0.5935   0.5969
     0.6021   0.6056   0.6931   0.7212   0.7317   0.7421   0.7506   0.7555
     4.1256   4.4134   4.4980   4.6845   4.8937   5.4600   5.6285   6.0344
     6.2338   6.4765   6.5329   6.6890   6.8771   6.9449   6.9526   6.9722
     6.9910   7.3770  14.8921  14.9431  20.3153  20.3549  20.6293  20.8306
    20.9214  20.9379  23.5805  23.7673  24.0752  24.1329  24.4247  24.4908
    25.2424  25.3529  25.5579  25.8587  25.9712  26.1182  26.5517  26.6997
    27.5039  27.5394  28.1868  28.7992  29.1757  29.3142  29.4845  29.7050

          k = 0.3373-0.4216 0.0000 (  4424 PWs)   bands (ev):

   -98.4303 -98.4300 -57.2318 -57.2317 -57.2294 -57.2294 -57.2271 -57.2269
   -12.3433 -12.0565 -11.7715 -11.7397 -11.4986 -11.0993   0.5835   0.5885
     0.5889   0.6166   0.6201   0.7174   0.7351   0.7543   0.7626   0.7662
     2.9283   4.4958   4.7135   5.1916   5.2258   5.5354   5.6811   5.7260
     5.7320   5.8467   6.4365   6.6253   6.8763   6.9553   7.0820   7.0983
     7.3078   9.1564  14.5138  14.5222  19.5221  20.3623  20.4784  21.2399
    21.8030  21.8348  22.9165  22.9477  23.0318  23.5821  24.1877  24.8797
    25.0578  25.1881  25.2905  26.0107  26.1202  26.2627  26.5190  27.0462
    27.4642  28.3253  28.5153  28.6009  28.6126  29.3716  29.4830  30.4037

          k = 0.3373-0.4216 0.1205 (  4432 PWs)   bands (ev):

   -98.4375 -98.4375 -57.2325 -57.2324 -57.2304 -57.2302 -57.2289 -57.2287
   -12.2915 -12.0414 -11.7702 -11.7423 -11.5130 -11.1716   0.5895   0.5903
     0.6092   0.6138   0.6179   0.7249   0.7326   0.7486   0.7581   0.7635
     3.1654   4.4743   4.6518   4.9850   5.2644   5.3894   5.6530   5.7939
     5.9624   6.0424   6.4837   6.5969   6.8819   6.9521   7.0585   7.0708
     7.2014   8.7493  14.6125  14.6183  19.7079  20.3313  20.4842  21.1824
    21.6343  21.6660  23.0254  23.0911  23.3253  24.1448  24.2439  24.7523
    24.8548  25.0322  25.1331  25.9389  26.1639  26.4578  26.5158  26.9126
    27.3485  27.8011  28.5301  28.7337  29.0865  29.1417  29.3422  30.5399

          k = 0.3373-0.4216 0.2409 (  4450 PWs)   bands (ev):

   -98.4543 -98.4535 -57.2355 -57.2354 -57.2329 -57.2328 -57.2307 -57.2306
   -12.1427 -12.0027 -11.7673 -11.7523 -11.5465 -11.3658   0.5938   0.5941
     0.6059   0.6065   0.6709   0.7239   0.7403   0.7426   0.7502   0.7561
     3.8336   4.4283   4.5180   4.7494   5.2653   5.3076   5.7257   5.8214
     6.2072   6.3068   6.5509   6.5925   6.9042   6.9372   6.9740   6.9964
     7.0100   7.7531  14.8588  14.8607  20.1381  20.3148  20.5450  20.9826
    21.1097  21.1452  23.4411  23.4812  23.9208  24.3571  24.4245  24.6714
    25.0130  25.1968  25.6093  25.7185  25.9143  26.1714  26.3706  26.9042
    27.5367  27.6660  28.1027  28.6647  29.2929  29.3995  29.6889  29.7149

          k = 0.3373-0.4216 0.3614 (  4438 PWs)   bands (ev):

   -98.4418 -98.4413 -57.2330 -57.2329 -57.2320 -57.2319 -57.2289 -57.2287
   -11.9624 -11.9214 -11.7685 -11.7657 -11.6210 -11.5733   0.5961   0.5961
     0.5992   0.5992   0.7158   0.7258   0.7416   0.7422   0.7501   0.7503
     4.3933   4.3972   4.6171   4.8278   5.2965   5.3043   5.6770   5.7479
     6.3525   6.3872   6.5535   6.5685   6.7614   6.8849   6.9216   6.9242
     6.9500   6.9599  15.0957  15.0962  20.3657  20.3824  20.5762  20.6624
    20.7584  20.7876  23.9348  23.9497  24.2035  24.2438  24.3083  24.4321
    25.4214  25.4429  25.7486  25.7836  26.2546  26.2808  26.6485  26.7559
    27.0710  27.0713  28.8061  28.9952  29.2939  29.4050  29.7856  29.8201

     the Fermi energy is    25.8840 ev

!    total energy              =   -1282.14166934 Ry
     Harris-Foulkes estimate   =   -1282.14167017 Ry
     estimated scf accuracy    <       0.00000096 Ry

     The total energy is the sum of the following terms:

     one-electron contribution =    -286.27497077 Ry
     hartree contribution      =     219.28937153 Ry
     xc contribution           =    -127.21118463 Ry
     ewald contribution        =   -1087.54858271 Ry
     smearing contrib. (-TS)   =      -0.39630275 Ry

     convergence has been achieved in  14 iterations

     Forces acting on atoms (Ry/au):

     atom    1 type  1   force =     0.00000000    0.00000000    0.00000000
     atom    2 type  1   force =     0.00000000    0.00000000    0.00000000
     atom    3 type  1   force =     0.00000000    0.00000000    0.00000000
     atom    4 type  1   force =     0.00000000    0.00000000    0.00000000
     atom    5 type  1   force =     0.00000000    0.00000000    0.00000000
     atom    6 type  1   force =     0.00000000    0.00000000    0.00000000
     atom    7 type  2   force =     0.00000000    0.00000000    0.00000000
     atom    8 type  2   force =     0.00000000    0.00000000    0.00000000

     Total force =     0.000000     Total SCF correction =     0.000000


     entering subroutine stress ...

          total   stress  (Ry/bohr**3)                   (kbar)     P=  580.08
   0.00394332   0.00000000   0.00000000        580.08      0.00      0.00
   0.00000000   0.00394332   0.00000000          0.00    580.08      0.00
   0.00000000   0.00000000   0.00394332          0.00      0.00    580.08


     Writing output data file Prototype-La-cP8-Cr3Si.save
 
     init_run     :      6.14s CPU      7.89s WALL (       2 calls)
     electrons    :   1367.38s CPU   1583.36s WALL (       5 calls)
     update_pot   :      1.40s CPU      1.44s WALL (       3 calls)
     forces       :      5.21s CPU      5.74s WALL (       5 calls)
     stress       :     13.36s CPU     14.04s WALL (       5 calls)

     Called by init_run:
     wfcinit      :      5.59s CPU      7.32s WALL (       2 calls)
     potinit      :      0.20s CPU      0.21s WALL (       2 calls)

     Called by electrons:
     c_bands      :   1326.55s CPU   1531.21s WALL (      46 calls)
     sum_band     :     40.48s CPU     51.01s WALL (      46 calls)
     v_of_rho     :      0.07s CPU      0.08s WALL (      51 calls)
     mix_rho      :      0.07s CPU      0.09s WALL (      46 calls)

     Called by c_bands:
     init_us_2    :      3.04s CPU      3.95s WALL (    4992 calls)
     ccgdiagg     :   1198.20s CPU   1364.13s WALL (    2554 calls)
     wfcrot       :    130.68s CPU    167.45s WALL (    2602 calls)

     Called by *cgdiagg:
     h_psi        :    943.56s CPU   1119.38s WALL ( 1001109 calls)
     cdiaghg      :      5.85s CPU      6.43s WALL (    2602 calls)

     Called by h_psi:
     add_vuspsi   :    110.51s CPU    129.09s WALL ( 1001109 calls)

     General routines
     calbec       :    327.06s CPU    334.94s WALL ( 2000096 calls)
     fft          :      0.09s CPU      0.11s WALL (     227 calls)
     fftw         :    608.14s CPU    725.30s WALL ( 2530678 calls)
     davcio       :      2.19s CPU      6.00s WALL (    7200 calls)
 
     Parallel routines
     fft_scatter  :    266.78s CPU    314.68s WALL ( 2530905 calls)
 
     PWSCF        : 23m14.60s CPU    26m55.88s WALL

 
   This run was terminated on:   1: 7:52  22Mar2018            

=------------------------------------------------------------------------------=
   JOB DONE.
=------------------------------------------------------------------------------=
