
     Program PWSCF v.5.0.2 starts on 22Mar2018 at  0:41: 5 

     This program is part of the open-source Quantum ESPRESSO suite
     for quantum simulation of materials; please cite
         "P. Giannozzi et al., J. Phys.:Condens. Matter 21 395502 (2009);
          URL http://www.quantum-espresso.org", 
     in publications or presentations arising from this work. More details at
     http://www.quantum-espresso.org/quote.php

     Parallel version (MPI), running on     4 processors
     R & G space division:  proc/nbgrp/npool/nimage =       4

     Current dimensions of program PWSCF are:
     Max number of different atomic species (ntypx) = 10
     Max number of k-points (npk) =  40000
     Max angular momentum in pseudopotentials (lmaxx) =  3
     Waiting for input...
     Reading input from standard input

     Subspace diagonalization in iterative solution of the eigenvalue problem:
     a serial algorithm will be used

 
     Parallelization info
     --------------------
     sticks:   dense  smooth     PW     G-vecs:    dense   smooth      PW
     Min         207     207     61                 7381     7381    1191
     Max         208     208     62                 7386     7386    1192
     Sum         829     829    247                29529    29529    4767
 


     bravais-lattice index     =            0
     lattice parameter (alat)  =       7.0151  a.u.
     unit-cell volume          =     862.2778 (a.u.)^3
     number of atoms/cell      =           12
     number of atomic types    =            2
     number of electrons       =       192.00
     number of Kohn-Sham states=          115
     kinetic-energy cutoff     =      40.0000  Ry
     charge density cutoff     =     160.0000  Ry
     convergence threshold     =      1.0E-04
     mixing beta               =       0.7000
     number of iterations used =            8  plain     mixing
     Exchange-correlation      = SLA-PZ-NOGX-NOGC ( 1 1 0 0 0)
     EXX-fraction              =        0.00
     nstep                     =           50


     celldm(1)=   7.015105  celldm(2)=   0.000000  celldm(3)=   0.000000
     celldm(4)=   0.000000  celldm(5)=   0.000000  celldm(6)=   0.000000

     crystal axes: (cart. coord. in units of alat)
               a(1) = (   1.000000   0.000000   0.000000 )  
               a(2) = (   0.000000   1.315963   0.000000 )  
               a(3) = (   0.000000   0.000000   1.898020 )  

     reciprocal axes: (cart. coord. in units 2 pi/alat)
               b(1) = (  1.000000  0.000000  0.000000 )  
               b(2) = (  0.000000  0.759900  0.000000 )  
               b(3) = (  0.000000  0.000000  0.526865 )  


     PseudoPot. # 1 for Ce read from file:
     /home/jld5415/pp.La/Ce.UPF
     MD5 check sum: 44451aa79a44a00cf2bc029dc19922f6
     Pseudo is Norm-conserving, Zval = 12.0
     Generated in analytical, separable form
     Using radial grid of 1255 points,  6 beta functions with: 
                l(1) =   0
                l(2) =   0
                l(3) =   1
                l(4) =   1
                l(5) =   2
                l(6) =   3

     PseudoPot. # 2 for Yb read from file:
     /home/jld5415/pp.La/Yb.UPF
     MD5 check sum: 3e859b81cc28c53ec6aa3a2e888efcdf
     Pseudo is Norm-conserving, Zval = 24.0
     Generated in analytical, separable form
     Using radial grid of 1269 points,  6 beta functions with: 
                l(1) =   0
                l(2) =   0
                l(3) =   1
                l(4) =   1
                l(5) =   2
                l(6) =   3

     atomic species   valence    mass     pseudopotential
        Co            12.00    58.93320     Ce( 1.00)
        Si            24.00    28.08550     Yb( 1.00)

      8 Sym. Ops., with inversion, found ( 6 have fractional translation)



   Cartesian axes

     site n.     atom                  positions (alat units)
         1           Co  tau(   1) = (   0.7500000   1.0875135   0.8270358  )
         2           Co  tau(   2) = (   0.2500000   0.2284499   1.0709846  )
         3           Co  tau(   3) = (   0.7500000   0.4295318   0.1219744  )
         4           Co  tau(   4) = (   0.2500000   0.8864316   1.7760460  )
         5           Co  tau(   5) = (   0.2500000   0.7067855   0.5358966  )
         6           Co  tau(   6) = (   0.7500000   0.6091779   1.3621238  )
         7           Co  tau(   7) = (   0.2500000   0.0488038   0.4131136  )
         8           Co  tau(   8) = (   0.7500000   1.2671596   1.4849068  )
         9           Si  tau(   9) = (   0.2500000   0.2669484   1.6960710  )
        10           Si  tau(  10) = (   0.7500000   1.0490149   0.2019494  )
        11           Si  tau(  11) = (   0.2500000   0.9249301   1.1509596  )
        12           Si  tau(  12) = (   0.7500000   0.3910333   0.7470608  )

     number of k points=    12  gaussian smearing, width (Ry)=  0.1000
                       cart. coord. in units 2pi/alat
        k(    1) = (   0.0000000   0.0000000   0.0000000), wk =   0.0833333
        k(    2) = (   0.0000000   0.0000000   0.1317162), wk =   0.1666667
        k(    3) = (   0.0000000   0.0000000  -0.2634324), wk =   0.0833333
        k(    4) = (   0.0000000   0.2532999   0.0000000), wk =   0.1666667
        k(    5) = (   0.0000000   0.2532999   0.1317162), wk =   0.3333333
        k(    6) = (   0.0000000   0.2532999  -0.2634324), wk =   0.1666667
        k(    7) = (  -0.5000000   0.0000000   0.0000000), wk =   0.0833333
        k(    8) = (  -0.5000000   0.0000000   0.1317162), wk =   0.1666667
        k(    9) = (  -0.5000000   0.0000000  -0.2634324), wk =   0.0833333
        k(   10) = (  -0.5000000   0.2532999   0.0000000), wk =   0.1666667
        k(   11) = (  -0.5000000   0.2532999   0.1317162), wk =   0.3333333
        k(   12) = (  -0.5000000   0.2532999  -0.2634324), wk =   0.1666667

     Dense  grid:    29529 G-vectors     FFT dimensions: (  30,  40,  54)

     Largest allocated arrays     est. size (Mb)     dimensions
        Kohn-Sham Wavefunctions         1.62 Mb     (    922,  115)
        NL pseudopotentials             3.38 Mb     (    922,  240)
        Each V/rho on FFT grid          0.26 Mb     (  16800)
        Each G-vector array             0.06 Mb     (   7386)
        G-vector shells                 0.06 Mb     (   7386)
     Largest temporary arrays     est. size (Mb)     dimensions
        Each subspace H/S matrix        0.20 Mb     ( 115, 115)
        Each <psi_i|beta_j> matrix      0.42 Mb     (    240,  115)
        Arrays for rho mixing           2.05 Mb     (  16800,   8)

     Initial potential from superposition of free atoms

     Starting from uniform charge
     Starting wfc are    0 randomized atomic wfcs

     total cpu time spent up to now is        5.0 secs

     Self-consistent Calculation

     iteration #  1     ecut=    40.00 Ry     beta=0.70
     CG style diagonalization
     c_bands:  1 eigenvalues not converged
     c_bands:  1 eigenvalues not converged
     c_bands:  1 eigenvalues not converged
     c_bands:  2 eigenvalues not converged
     c_bands:  2 eigenvalues not converged
     c_bands:  3 eigenvalues not converged
     c_bands:  2 eigenvalues not converged
     c_bands:  1 eigenvalues not converged
     c_bands:  1 eigenvalues not converged
     c_bands:  1 eigenvalues not converged
     c_bands:  3 eigenvalues not converged
     ethr =  1.00E-02,  avg # of iterations = 13.7

     total cpu time spent up to now is       36.8 secs

     total energy              =   -1093.46611139 Ry
     Harris-Foulkes estimate   =   -3020.26645260 Ry
     estimated scf accuracy    <    2286.13745063 Ry

     iteration #  2     ecut=    40.00 Ry     beta=0.70
     CG style diagonalization
     c_bands:  2 eigenvalues not converged
     c_bands:  5 eigenvalues not converged
     c_bands:  2 eigenvalues not converged
     ethr =  1.00E-02,  avg # of iterations = 17.4

     total cpu time spent up to now is       73.5 secs

     total energy              =   -1826.84869533 Ry
     Harris-Foulkes estimate   =   -3069.77615610 Ry
     estimated scf accuracy    <    2273.53103504 Ry

     iteration #  3     ecut=    40.00 Ry     beta=0.70
     CG style diagonalization
     c_bands:  1 eigenvalues not converged
     c_bands:  1 eigenvalues not converged
     c_bands:  1 eigenvalues not converged
     c_bands:  2 eigenvalues not converged
     c_bands:  1 eigenvalues not converged
     ethr =  1.00E-02,  avg # of iterations = 13.5

     total cpu time spent up to now is      100.0 secs

     total energy              =   -2228.40879540 Ry
     Harris-Foulkes estimate   =   -2268.04278210 Ry
     estimated scf accuracy    <      77.57954745 Ry

     iteration #  4     ecut=    40.00 Ry     beta=0.70
     CG style diagonalization
     ethr =  1.00E-02,  avg # of iterations =  4.4

     total cpu time spent up to now is      108.7 secs

     total energy              =   -2239.11764450 Ry
     Harris-Foulkes estimate   =   -2243.28696426 Ry
     estimated scf accuracy    <       8.85635898 Ry

     iteration #  5     ecut=    40.00 Ry     beta=0.70
     CG style diagonalization
     ethr =  4.61E-03,  avg # of iterations =  3.7

     total cpu time spent up to now is      115.6 secs

     total energy              =   -2239.85271563 Ry
     Harris-Foulkes estimate   =   -2240.99860704 Ry
     estimated scf accuracy    <       2.30022743 Ry

     iteration #  6     ecut=    40.00 Ry     beta=0.70
     CG style diagonalization
     ethr =  1.20E-03,  avg # of iterations =  4.1

     total cpu time spent up to now is      123.5 secs

     total energy              =   -2240.23617898 Ry
     Harris-Foulkes estimate   =   -2240.38861141 Ry
     estimated scf accuracy    <       0.25205379 Ry

     iteration #  7     ecut=    40.00 Ry     beta=0.70
     CG style diagonalization
     c_bands:  1 eigenvalues not converged
     c_bands:  1 eigenvalues not converged
     c_bands:  1 eigenvalues not converged
     c_bands:  2 eigenvalues not converged
     c_bands:  1 eigenvalues not converged
     c_bands:  1 eigenvalues not converged
     ethr =  1.31E-04,  avg # of iterations =  5.0

     total cpu time spent up to now is      133.3 secs

     total energy              =   -2240.35747075 Ry
     Harris-Foulkes estimate   =   -2240.37085557 Ry
     estimated scf accuracy    <       0.02929747 Ry

     iteration #  8     ecut=    40.00 Ry     beta=0.70
     CG style diagonalization
     c_bands:  1 eigenvalues not converged
     c_bands:  1 eigenvalues not converged
     c_bands:  1 eigenvalues not converged
     ethr =  1.53E-05,  avg # of iterations =  4.5

     total cpu time spent up to now is      142.0 secs

     total energy              =   -2240.36283891 Ry
     Harris-Foulkes estimate   =   -2240.36654066 Ry
     estimated scf accuracy    <       0.00584674 Ry

     iteration #  9     ecut=    40.00 Ry     beta=0.70
     CG style diagonalization
     c_bands:  1 eigenvalues not converged
     ethr =  3.05E-06,  avg # of iterations =  4.5

     total cpu time spent up to now is      150.8 secs

     total energy              =   -2240.36491958 Ry
     Harris-Foulkes estimate   =   -2240.36514989 Ry
     estimated scf accuracy    <       0.00042641 Ry

     iteration # 10     ecut=    40.00 Ry     beta=0.70
     CG style diagonalization
     ethr =  2.22E-07,  avg # of iterations =  4.3

     total cpu time spent up to now is      159.1 secs

     End of self-consistent calculation

          k = 0.0000 0.0000 0.0000 (  3675 PWs)   bands (ev):

   -77.2821 -77.2525 -77.2465 -77.2180 -36.4023 -36.4022 -36.3896 -36.3747
   -36.3358 -36.3353 -36.3347 -36.3286 -36.2048 -36.1970 -36.1818 -36.1659
     4.9862   6.8233   7.1419   8.2173   8.7236   9.3755   9.4593   9.9872
    17.3793  17.6306  17.6852  17.8977  18.5371  18.5452  18.6553  19.1356
    19.1587  19.6230  19.6718  19.9939  20.0297  20.4613  20.4812  20.5961
    20.6475  20.7308  21.0142  21.0480  21.1388  21.9807  22.4635  23.1542
    23.5453  25.1215  25.6941  25.7326  25.8226  26.0672  26.2166  26.4249
    26.4730  27.0075  27.9359  28.3637  28.8950  28.9735  28.9950  29.0019
    29.0753  30.9885  31.1314  31.1634  34.6248  35.9887  36.1333  37.6150
    38.3410  39.5065  39.8764  41.6985  41.7293  41.7717  41.8774  42.7495
    43.0722  43.2868  43.5647  43.6537  43.8294  44.4418  44.5244  45.3525
    46.7636  47.3133  47.3212  48.3358  48.3527  48.5848  48.8407  49.1988
    49.6091  49.7489  50.4272  50.8989  50.9751  51.5143  51.5969  51.6152
    51.6217  52.0117  52.2029  52.8650  53.2006  53.6243  53.9838  54.0885
    55.1654  55.2542  55.2962

          k = 0.0000 0.0000 0.1317 (  3675 PWs)   bands (ev):

   -77.2911 -77.2458 -77.2457 -77.2198 -36.3989 -36.3942 -36.3871 -36.3827
   -36.3399 -36.3334 -36.3332 -36.3287 -36.2045 -36.2039 -36.1768 -36.1701
     5.1331   6.1883   7.7889   8.2438   8.7501   9.3843   9.4385   9.6964
    17.6793  17.7093  17.7229  17.9991  18.3447  18.4238  18.5340  19.2257
    19.2988  19.4645  19.8308  19.8767  20.0477  20.2937  20.3633  20.6675
    20.7330  20.7584  21.1272  21.1862  21.7838  22.1064  22.4598  23.0027
    23.4661  24.4366  24.5689  24.8133  25.0943  25.7762  26.7626  27.3392
    27.5341  27.6471  28.3327  28.3507  28.3583  28.5955  28.9985  29.0121
    29.2858  30.6161  31.1517  31.2724  34.8475  35.8793  37.2321  38.0189
    38.6243  39.4281  39.8077  41.3572  41.8233  42.1999  42.2011  42.2679
    42.3206  42.5932  43.0002  43.7794  44.5131  44.8884  45.0855  45.5439
    45.9352  46.1704  46.3511  47.5771  47.8294  48.4241  48.7192  49.1157
    49.4339  49.6385  50.3688  50.9758  51.0824  51.5599  51.6113  52.1134
    52.5176  52.5868  52.7985  52.9781  53.4818  53.8157  54.0545  54.4362
    54.9396  54.9791  55.0393

          k = 0.0000 0.0000-0.2634 (  3690 PWs)   bands (ev):

   -77.2864 -77.2864 -77.2418 -77.2418 -36.3953 -36.3953 -36.3830 -36.3830
   -36.3397 -36.3397 -36.3354 -36.3354 -36.2118 -36.2118 -36.1760 -36.1760
     5.5532   5.5532   8.2320   8.2320   9.0743   9.0743   9.4081   9.4081
    17.7895  17.7895  17.9876  17.9876  18.2555  18.2555  18.9004  18.9004
    19.4881  19.4881  19.6488  19.6488  20.2165  20.2165  20.4910  20.4910
    20.8030  20.8030  21.2876  21.2876  22.3746  22.3746  23.0121  23.0121
    23.1532  23.1532  24.0350  24.0350  25.2105  25.2105  27.4898  27.4898
    27.8911  27.8911  28.1838  28.1838  28.6307  28.6307  29.0273  29.0273
    29.8121  29.8121  31.2244  31.2244  35.4720  35.4720  38.6451  38.6451
    38.8915  38.8915  40.5394  40.5394  41.6854  41.6854  41.7792  41.7792
    42.7597  42.7597  43.7891  43.7891  44.2271  44.2271  44.4117  44.4117
    46.6043  46.6043  46.9287  46.9287  47.4367  47.4367  48.2757  48.2757
    49.2470  49.2470  50.9494  50.9494  51.3027  51.3027  52.6847  52.6848
    52.9915  52.9917  53.0937  53.0939  53.9650  53.9653  54.3333  54.3337
    54.4414  54.4419  55.0295

          k = 0.0000 0.2533 0.0000 (  3664 PWs)   bands (ev):

   -77.2730 -77.2703 -77.2200 -77.1870 -36.4017 -36.3963 -36.3868 -36.3771
   -36.3408 -36.3371 -36.3258 -36.3245 -36.1994 -36.1984 -36.1727 -36.1704
     5.5196   6.8045   7.2824   7.6724   8.4133   8.6791  10.0952  10.2662
    17.4267  17.4474  17.5321  18.0204  18.0348  18.1912  18.7132  18.8682
    19.3386  19.5947  19.7631  19.7664  19.8622  19.9394  20.0364  20.3892
    20.5687  20.6520  21.0435  21.2136  21.7376  22.1789  22.8234  23.9026
    24.8245  25.0417  25.1806  25.8457  25.9907  26.1246  26.2228  26.8670
    27.8514  27.9354  28.0162  28.0253  28.2621  28.3990  28.7410  28.9595
    29.4467  30.0965  30.3039  31.1525  34.9084  36.8214  37.8467  38.2742
    38.6381  39.4192  40.2390  40.2945  41.0042  41.0209  41.2627  41.8996
    42.5774  42.5807  42.6213  44.3925  44.8378  44.8609  45.1757  45.1772
    45.4067  45.9077  46.2102  47.4361  47.4747  47.5210  48.6306  48.8808
    49.1424  50.3571  50.3596  50.6655  51.2625  51.5026  51.6105  51.7523
    52.5261  52.7635  53.2743  53.3020  53.9012  54.3139  54.6275  54.7765
    55.1646  55.3003  55.3921

          k = 0.0000 0.2533 0.1317 (  3669 PWs)   bands (ev):

   -77.2646 -77.2619 -77.2382 -77.2125 -36.3978 -36.3958 -36.3838 -36.3796
   -36.3400 -36.3374 -36.3332 -36.3247 -36.2019 -36.1997 -36.1781 -36.1703
     5.6570   6.5750   7.1356   7.7554   8.5012   8.9970   9.9596  10.0590
    17.4817  17.5631  17.7634  17.8913  18.1396  18.4698  18.6202  18.7278
    19.3491  19.4299  19.6011  19.6696  19.8275  20.1935  20.2273  20.4088
    20.4805  20.6048  21.1119  21.1719  21.9751  22.3491  23.0790  23.8059
    23.9297  24.8165  24.8957  25.2851  25.5800  26.2158  26.5056  26.7120
    27.5857  27.8755  28.0870  28.2381  28.4692  28.6168  29.1440  29.4313
    29.7621  30.0653  30.5782  30.8461  35.1874  36.6299  38.1773  38.5218
    38.8683  39.6948  40.0062  40.0593  40.6233  40.8874  41.4559  41.8341
    42.1584  42.6298  43.4677  43.7920  43.9529  44.6679  44.7967  45.1361
    45.6718  46.3256  46.3725  47.2617  47.5342  47.7315  48.4869  49.2877
    49.4251  49.8535  49.9939  50.2790  50.5267  50.9113  51.8129  51.8721
    52.1142  52.7363  53.2450  53.4236  53.9990  54.0223  54.7374  55.1107
    55.3111  55.4388  55.7183

          k = 0.0000 0.2533-0.2634 (  3666 PWs)   bands (ev):

   -77.2542 -77.2542 -77.2296 -77.2296 -36.3947 -36.3947 -36.3837 -36.3837
   -36.3396 -36.3396 -36.3261 -36.3261 -36.2002 -36.2002 -36.1739 -36.1739
     6.0439   6.0439   7.3931   7.3931   9.0549   9.0549   9.7837   9.7837
    17.5719  17.5719  17.8947  17.8947  18.5555  18.5555  18.7001  18.7001
    19.1895  19.1895  19.4808  19.4808  19.9934  19.9934  20.3833  20.3833
    20.6028  20.6028  21.1493  21.1493  22.5700  22.5700  23.2470  23.2470
    23.8210  23.8210  24.9121  24.9121  25.8846  25.8846  26.2386  26.2386
    27.9426  27.9426  28.3531  28.3531  28.4986  28.4986  29.6809  29.6809
    30.2676  30.2676  30.4823  30.4823  36.0139  36.0139  38.6470  38.6470
    39.3199  39.3199  39.4209  39.4209  41.1664  41.1664  41.8264  41.8264
    42.8085  42.8085  43.3336  43.3336  43.4266  43.4266  45.0935  45.0935
    45.6224  45.6224  46.7295  46.7295  48.2141  48.2141  48.2863  48.2863
    49.7090  49.7090  50.1642  50.1642  50.9665  50.9665  51.5788  51.5788
    52.3339  52.3340  53.0386  53.0386  54.2530  54.2533  54.8058  54.8059
    55.6648  55.6651  56.3026

          k =-0.5000 0.0000 0.0000 (  3722 PWs)   bands (ev):

   -77.2994 -77.2994 -77.2927 -77.2927 -36.4155 -36.4155 -36.4055 -36.4055
   -36.3403 -36.3403 -36.3375 -36.3375 -36.1970 -36.1970 -36.1874 -36.1874
     6.7149   6.7149   7.8155   7.8155   8.2058   8.2058   9.4033   9.4033
    17.9887  17.9887  18.5519  18.5519  19.1357  19.1357  19.4028  19.4028
    19.4768  19.4768  19.5870  19.5870  19.9339  19.9339  20.1623  20.1623
    20.6892  20.6892  21.1038  21.1038  21.2373  21.2373  22.4706  22.4706
    23.2681  23.2681  23.9668  23.9668  24.2702  24.2702  26.3062  26.3062
    28.0602  28.0602  28.2878  28.2878  28.8302  28.8302  29.5515  29.5515
    30.5576  30.5576  31.3903  31.3903  34.2754  34.2754  38.1992  38.1992
    40.6154  40.6154  42.2392  42.2392  43.1235  43.1235  43.5798  43.5798
    44.2081  44.2081  44.6854  44.6854  45.5234  45.5234  45.9722  45.9722
    46.5248  46.5248  46.7394  46.7394  47.5076  47.5076  48.5038  48.5038
    49.2168  49.2168  49.4568  49.4568  49.8706  49.8706  50.1390  50.1390
    50.3587  50.3587  51.1200  51.1200  51.8408  51.8409  53.6333  53.6333
    54.1243  54.1244  54.8772

          k =-0.5000 0.0000 0.1317 (  3710 PWs)   bands (ev):

   -77.2854 -77.2854 -77.2829 -77.2829 -36.4120 -36.4120 -36.4038 -36.4038
   -36.3389 -36.3389 -36.3335 -36.3335 -36.1954 -36.1954 -36.1872 -36.1872
     6.7639   6.7639   7.7472   7.7472   8.2180   8.2180   9.3808   9.3808
    18.1692  18.1692  18.6871  18.6871  19.1465  19.1465  19.3111  19.3111
    19.4973  19.4973  19.6352  19.6352  19.9222  19.9222  20.1501  20.1501
    20.3670  20.3670  21.2359  21.2359  21.5065  21.5065  22.2770  22.2770
    23.0029  23.0029  23.7161  23.7161  24.8410  24.8410  26.1198  26.1198
    26.9732  26.9732  28.4396  28.4396  29.1423  29.1423  29.6867  29.6867
    31.0466  31.0466  31.5398  31.5398  34.6420  34.6420  38.3054  38.3054
    40.8682  40.8682  42.0489  42.0489  42.3915  42.3915  43.4200  43.4200
    44.2270  44.2270  44.3502  44.3502  44.4740  44.4740  45.6173  45.6173
    46.7248  46.7248  46.8011  46.8011  47.8583  47.8583  48.1338  48.1338
    49.3599  49.3599  49.6572  49.6572  50.3660  50.3660  50.8011  50.8011
    51.2075  51.2076  51.4983  51.4985  51.8986  51.8987  53.1049  53.1052
    54.3061  54.3068  54.7492

          k =-0.5000 0.0000-0.2634 (  3680 PWs)   bands (ev):

   -77.2659 -77.2659 -77.2469 -77.2469 -36.4046 -36.4046 -36.4007 -36.4007
   -36.3330 -36.3330 -36.3271 -36.3271 -36.1893 -36.1893 -36.1865 -36.1865
     6.8215   6.8215   7.6702   7.6702   8.2331   8.2331   9.3573   9.3573
    18.4895  18.4895  18.6270  18.6270  19.0921  19.0921  19.4047  19.4047
    19.5253  19.5253  19.6308  19.6308  20.0175  20.0175  20.1380  20.1380
    20.1539  20.1539  21.3335  21.3335  21.5194  21.5194  21.9700  21.9700
    22.7748  22.7748  24.0787  24.0787  25.0510  25.0510  25.8112  25.8112
    26.3744  26.3744  28.2922  28.2922  29.5039  29.5039  29.6207  29.6207
    31.4955  31.4955  31.6723  31.6723  35.2320  35.2320  38.0976  38.0976
    41.3339  41.3339  41.9131  41.9131  41.9596  41.9596  42.7347  42.7347
    43.6445  43.6445  43.9363  43.9363  45.0203  45.0203  45.6116  45.6116
    45.9729  45.9729  46.9773  46.9773  47.8079  47.8079  47.9704  47.9704
    49.7297  49.7297  49.9669  49.9669  50.3522  50.3522  50.5548  50.5548
    51.7906  51.7907  52.1563  52.1563  53.0139  53.0140  53.4816  53.4817
    54.4757  54.4761  54.7044

          k =-0.5000 0.2533 0.0000 (  3686 PWs)   bands (ev):

   -77.2708 -77.2708 -77.2577 -77.2577 -36.4130 -36.4130 -36.4051 -36.4051
   -36.3321 -36.3321 -36.3301 -36.3301 -36.1869 -36.1869 -36.1809 -36.1809
     7.1043   7.1043   7.7365   7.7365   8.3806   8.3806   8.8650   8.8650
    18.1824  18.1824  18.2627  18.2627  18.7060  18.7060  18.9991  18.9991
    19.5545  19.5545  19.6888  19.6888  19.7552  19.7552  19.8491  19.8491
    20.4832  20.4832  20.8616  20.8616  22.1832  22.1832  22.6213  22.6213
    23.2295  23.2295  24.2225  24.2225  25.5902  25.5902  26.6617  26.6617
    27.5004  27.5004  27.7883  27.7883  29.4063  29.4063  29.9723  29.9723
    30.4354  30.4354  30.7466  30.7466  35.2407  35.2407  37.7436  37.7436
    40.8737  40.8737  41.4378  41.4378  42.0249  42.0249  43.4215  43.4215
    43.7294  43.7294  44.3182  44.3182  44.5808  44.5808  45.3705  45.3705
    46.4414  46.4414  46.9214  46.9214  48.0462  48.0462  48.2338  48.2338
    48.6848  48.6848  49.2704  49.2704  50.5395  50.5395  51.4320  51.4320
    51.9125  51.9127  52.0290  52.0292  53.0184  53.0186  53.6729  53.6740
    53.8826  53.8851  54.0800

          k =-0.5000 0.2533 0.1317 (  3692 PWs)   bands (ev):

   -77.2881 -77.2881 -77.2519 -77.2519 -36.4080 -36.4080 -36.4066 -36.4066
   -36.3344 -36.3344 -36.3315 -36.3315 -36.1919 -36.1919 -36.1814 -36.1814
     7.1531   7.1531   7.7359   7.7359   8.3464   8.3464   8.8149   8.8149
    18.3543  18.3543  18.4860  18.4860  18.7512  18.7512  19.0336  19.0336
    19.3158  19.3158  19.5402  19.5402  19.8230  19.8230  19.9277  19.9277
    20.4464  20.4464  20.9494  20.9494  22.1307  22.1307  22.5024  22.5024
    23.3126  23.3126  23.7031  23.7031  25.5676  25.5676  26.4532  26.4532
    27.6877  27.6877  28.0117  28.0117  29.4933  29.4933  29.8796  29.8796
    30.4558  30.4558  30.9927  30.9927  35.5426  35.5426  38.1041  38.1041
    40.5295  40.5295  41.5215  41.5215  42.0743  42.0743  42.4572  42.4572
    43.2405  43.2405  43.7696  43.7696  44.8363  44.8363  45.8960  45.8960
    46.3192  46.3192  46.9378  46.9378  47.8159  47.8159  48.5147  48.5147
    49.4045  49.4045  49.9621  49.9621  50.1409  50.1409  51.1071  51.1071
    51.3243  51.3244  52.1474  52.1476  53.3032  53.3033  53.6128  53.6128
    54.0086  54.0089  54.5607

          k =-0.5000 0.2533-0.2634 (  3704 PWs)   bands (ev):

   -77.3049 -77.3049 -77.2589 -77.2589 -36.4085 -36.4085 -36.4083 -36.4083
   -36.3364 -36.3364 -36.3329 -36.3329 -36.1932 -36.1932 -36.1866 -36.1866
     7.2110   7.2110   7.7229   7.7229   8.3213   8.3213   8.7590   8.7590
    18.6833  18.6833  18.6844  18.6844  18.7536  18.7536  19.0726  19.0726
    19.2310  19.2310  19.2507  19.2507  19.9200  19.9200  19.9324  19.9324
    20.4178  20.4178  20.9503  20.9503  22.0773  22.0773  22.5785  22.5785
    22.7029  22.7029  24.1779  24.1779  24.7882  24.7882  26.6823  26.6823
    27.8685  27.8685  28.1410  28.1410  29.5850  29.5850  29.6013  29.6013
    30.7072  30.7072  31.1050  31.1050  36.0340  36.0340  38.4892  38.4892
    40.0126  40.0126  41.0953  41.0953  41.7571  41.7571  42.1451  42.1451
    43.3420  43.3420  43.6707  43.6707  45.3343  45.3343  45.5597  45.5597
    46.1719  46.1719  47.0194  47.0194  47.1457  47.1457  48.9856  48.9856
    49.3340  49.3340  50.3945  50.3945  50.8800  50.8800  51.2134  51.2135
    51.4052  51.4053  51.6282  51.6283  52.4759  52.4760  53.8758  53.8762
    54.9342  54.9359  55.1302

     the Fermi energy is    48.9493 ev

!    total energy              =   -2240.36502931 Ry
     Harris-Foulkes estimate   =   -2240.36506921 Ry
     estimated scf accuracy    <       0.00004384 Ry

     The total energy is the sum of the following terms:

     one-electron contribution =     -26.55464645 Ry
     hartree contribution      =     277.00186939 Ry
     xc contribution           =    -227.45059565 Ry
     ewald contribution        =   -2262.99969378 Ry
     smearing contrib. (-TS)   =      -0.36196283 Ry

     convergence has been achieved in  10 iterations

     Forces acting on atoms (Ry/au):

     atom    1 type  1   force =     0.00000000   -0.06638696   -0.05776422
     atom    2 type  1   force =     0.00000000    0.06638696    0.05776422
     atom    3 type  1   force =     0.00000000   -0.06638696    0.05776422
     atom    4 type  1   force =     0.00000000    0.06638696   -0.05776422
     atom    5 type  1   force =     0.00000000    0.20944212   -0.33232532
     atom    6 type  1   force =     0.00000000   -0.20944212    0.33232532
     atom    7 type  1   force =     0.00000000    0.20944212    0.33232532
     atom    8 type  1   force =     0.00000000   -0.20944212   -0.33232532
     atom    9 type  2   force =     0.00000000   -0.17830959    0.00363281
     atom   10 type  2   force =     0.00000000    0.17830959   -0.00363281
     atom   11 type  2   force =     0.00000000   -0.17830959   -0.00363281
     atom   12 type  2   force =     0.00000000    0.17830959    0.00363281

     Total force =     0.880585     Total SCF correction =     0.000000


     entering subroutine stress ...

          total   stress  (Ry/bohr**3)                   (kbar)     P= 6929.53
   0.05159857   0.00000000   0.00000000       7590.41      0.00      0.00
   0.00000000   0.04320667   0.00000000          0.00   6355.92      0.00
   0.00000000   0.00000000   0.04651283          0.00      0.00   6842.27


     BFGS Geometry Optimization

     number of scf cycles    =   1
     number of bfgs steps    =   0

     enthalpy new            =   -2240.3650293123 Ry

     new trust radius        =       0.5000000000 bohr
     new conv_thr            =       0.0001000000 Ry

     new unit-cell volume =   1079.32372 a.u.^3 (   159.93927 Ang^3 )

CELL_PARAMETERS (alat=  7.01510508)
   1.085136619   0.000000000   0.000000000
   0.000000000   1.409778624   0.000000000
   0.000000000   0.000000000   2.043684444

ATOMIC_POSITIONS (crystal)
Co       0.750000000   0.825926383   0.435449673
Co       0.250000000   0.174073617   0.564550327
Co       0.750000000   0.325926383   0.064550327
Co       0.250000000   0.674073617   0.935449673
Co       0.250000000   0.538583355   0.280697721
Co       0.750000000   0.461416645   0.719302279
Co       0.250000000   0.038583355   0.219302279
Co       0.750000000   0.961416645   0.780697721
Si       0.250000000   0.201579219   0.893618007
Si       0.750000000   0.798420781   0.106381993
Si       0.250000000   0.701579219   0.606381993
Si       0.750000000   0.298420781   0.393618007



     Writing output data file Prototype-La-oP12-Co2Si.save
     NEW-OLD atomic charge density approx. for the potential
     NEW k-points:
        k(    1) = (   0.0000000   0.0000000   0.0000000), wk =   0.0833333
        k(    2) = (   0.0000000   0.0000000   0.1223281), wk =   0.1666667
        k(    3) = (   0.0000000   0.0000000  -0.2446562), wk =   0.0833333
        k(    4) = (   0.0000000   0.2364437   0.0000000), wk =   0.1666667
        k(    5) = (   0.0000000   0.2364437   0.1223281), wk =   0.3333333
        k(    6) = (   0.0000000   0.2364437  -0.2446562), wk =   0.1666667
        k(    7) = (  -0.4607715   0.0000000   0.0000000), wk =   0.0833333
        k(    8) = (  -0.4607715   0.0000000   0.1223281), wk =   0.1666667
        k(    9) = (  -0.4607715   0.0000000  -0.2446562), wk =   0.0833333
        k(   10) = (  -0.4607715   0.2364437   0.0000000), wk =   0.1666667
        k(   11) = (  -0.4607715   0.2364437   0.1223281), wk =   0.3333333
        k(   12) = (  -0.4607715   0.2364437  -0.2446562), wk =   0.1666667

     total cpu time spent up to now is      162.7 secs

     Self-consistent Calculation

     iteration #  1     ecut=    40.00 Ry     beta=0.70
     CG style diagonalization
     c_bands:  1 eigenvalues not converged
     c_bands:  2 eigenvalues not converged
     c_bands:  1 eigenvalues not converged
     c_bands:  1 eigenvalues not converged
     c_bands:  2 eigenvalues not converged
     c_bands:  1 eigenvalues not converged
     c_bands:  1 eigenvalues not converged
     c_bands:  2 eigenvalues not converged
     ethr =  1.00E-06,  avg # of iterations = 21.9

     total cpu time spent up to now is      243.4 secs

     total energy              =   -2240.65264069 Ry
     Harris-Foulkes estimate   =   -2257.12380552 Ry
     estimated scf accuracy    <      20.76737734 Ry

     iteration #  2     ecut=    40.00 Ry     beta=0.70
     CG style diagonalization
     ethr =  1.00E-02,  avg # of iterations =  3.9

     total cpu time spent up to now is      251.1 secs

     total energy              =   -2245.54181875 Ry
     Harris-Foulkes estimate   =   -2249.05153138 Ry
     estimated scf accuracy    <       5.02735131 Ry

     iteration #  3     ecut=    40.00 Ry     beta=0.70
     CG style diagonalization
     ethr =  2.62E-03,  avg # of iterations =  3.9

     total cpu time spent up to now is      259.0 secs

     total energy              =   -2247.10516126 Ry
     Harris-Foulkes estimate   =   -2247.49413768 Ry
     estimated scf accuracy    <       0.67449304 Ry

     iteration #  4     ecut=    40.00 Ry     beta=0.70
     CG style diagonalization
     ethr =  3.51E-04,  avg # of iterations =  3.9

     total cpu time spent up to now is      266.6 secs

     total energy              =   -2247.29935445 Ry
     Harris-Foulkes estimate   =   -2247.35822086 Ry
     estimated scf accuracy    <       0.11831234 Ry

     iteration #  5     ecut=    40.00 Ry     beta=0.70
     CG style diagonalization
     c_bands:  1 eigenvalues not converged
     ethr =  6.16E-05,  avg # of iterations =  3.5

     total cpu time spent up to now is      274.5 secs

     total energy              =   -2247.32264081 Ry
     Harris-Foulkes estimate   =   -2247.32554313 Ry
     estimated scf accuracy    <       0.00570154 Ry

     iteration #  6     ecut=    40.00 Ry     beta=0.70
     CG style diagonalization
     c_bands:  1 eigenvalues not converged
     c_bands:  1 eigenvalues not converged
     c_bands:  1 eigenvalues not converged
     ethr =  2.97E-06,  avg # of iterations =  4.6

     total cpu time spent up to now is      387.3 secs

     total energy              =   -2247.32458195 Ry
     Harris-Foulkes estimate   =   -2247.32487746 Ry
     estimated scf accuracy    <       0.00049951 Ry

     iteration #  7     ecut=    40.00 Ry     beta=0.70
     CG style diagonalization
     c_bands:  1 eigenvalues not converged
     ethr =  2.60E-07,  avg # of iterations =  4.3

     total cpu time spent up to now is      397.8 secs

     End of self-consistent calculation

          k = 0.0000 0.0000 0.0000 (  3675 PWs)   bands (ev):

   -85.4055 -85.3626 -85.3525 -85.3102 -45.3251 -45.3248 -45.3199 -45.3114
   -45.3006 -45.3003 -45.2988 -45.2966 -45.2347 -45.2313 -45.2270 -45.2179
    -1.6709  -0.5864  -0.3196   0.3197   0.5683   0.9511   1.0163   1.1636
    10.6117  10.6648  10.8043  10.9492  11.1094  11.1606  11.1771  11.5279
    11.5579  11.7145  11.7448  11.9033  11.9154  12.1232  12.1516  12.1520
    12.2061  12.2608  12.3045  12.3222  14.2839  14.3259  14.8029  15.5701
    15.6402  16.7604  16.9669  17.0238  17.3673  17.3900  17.7202  17.8722
    18.2774  18.3468  19.0375  19.0694  19.2983  19.5872  19.6734  19.7703
    19.9535  20.7251  21.3174  21.4480  25.9937  26.1032  26.8534  28.2975
    29.6023  30.8740  31.2643  32.5912  32.6590  32.7222  33.2274  33.8440
    33.9326  34.5524  34.9130  34.9359  35.0285  35.2476  35.2655  35.9466
    36.2277  37.3194  38.0161  38.1627  38.6104  38.8083  38.9956  39.2739
    39.5945  39.7941  40.9042  40.9282  41.0886  41.2419  41.3277  41.4923
    41.5632  42.5410  42.5453  42.7697  43.4998  43.7145  43.8254  44.3863
    44.7893  44.9216  45.2573

          k = 0.0000 0.0000 0.1223 (  3675 PWs)   bands (ev):

   -85.4218 -85.3527 -85.3484 -85.3091 -45.3231 -45.3198 -45.3185 -45.3160
   -45.3036 -45.2990 -45.2985 -45.2947 -45.2360 -45.2357 -45.2241 -45.2201
    -1.5801  -0.9389   0.0277   0.3254   0.5896   0.9585   0.9980   1.0447
    10.7198  10.7916  10.8523  10.9380  11.0319  11.1025  11.1437  11.5773
    11.5940  11.6462  11.7475  11.8629  11.8945  12.0531  12.1310  12.2206
    12.2376  12.2753  12.2951  12.3573  14.4042  14.6298  14.8043  15.4563
    15.6234  16.3396  16.3772  16.6328  16.8782  17.5465  18.3101  18.4101
    18.4704  18.6089  19.0276  19.1306  19.2910  19.6019  19.6086  19.6862
    19.7765  20.5170  21.3719  21.4196  26.2484  26.4575  27.0640  28.3125
    29.8475  30.9954  31.0274  32.5881  32.6701  32.8007  33.5700  33.6467
    33.6812  33.9077  34.0054  34.6621  35.0499  35.3636  35.6246  35.7577
    36.6565  36.6833  37.1586  38.0064  38.0138  38.5173  39.5274  39.6760
    39.8172  39.8755  40.1655  40.9156  41.1354  41.9298  42.1978  42.3078
    42.4090  42.6327  42.9581  43.2204  43.2375  43.4713  44.1104  44.1313
    44.3622  44.9143  45.6117

          k = 0.0000 0.0000-0.2447 (  3690 PWs)   bands (ev):

   -85.4155 -85.4155 -85.3452 -85.3452 -45.3207 -45.3207 -45.3162 -45.3162
   -45.3032 -45.3032 -45.2998 -45.2998 -45.2413 -45.2413 -45.2243 -45.2243
    -1.3223  -1.3223   0.2924   0.2924   0.7535   0.7535   0.9798   0.9798
    10.8643  10.8643  10.9501  10.9501  10.9758  10.9758  11.3309  11.3309
    11.6815  11.6815  11.7136  11.7136  11.9567  11.9567  12.1766  12.1766
    12.2672  12.2672  12.3670  12.3670  14.6667  14.6667  15.3763  15.3763
    15.4676  15.4676  16.2030  16.2030  17.1364  17.1364  18.7080  18.7080
    18.8842  18.8842  18.9242  18.9242  19.3565  19.3565  19.6562  19.6562
    20.0336  20.0336  21.3916  21.3916  26.5373  26.5373  27.9331  27.9331
    30.4448  30.4448  31.7360  31.7360  32.6488  32.6488  33.4555  33.4555
    33.6042  33.6042  34.6349  34.6349  34.7500  34.7500  35.2930  35.2930
    37.0774  37.0774  37.3503  37.3503  37.9473  37.9473  39.0653  39.0653
    39.8454  39.8454  41.0401  41.0401  41.9579  41.9579  42.8042  42.8043
    42.8570  42.8572  43.3426  43.3426  43.6529  43.6529  43.8102  43.8102
    45.0542  45.1568  45.1569

          k = 0.0000 0.2364 0.0000 (  3664 PWs)   bands (ev):

   -85.3969 -85.3946 -85.3047 -85.2518 -45.3259 -45.3222 -45.3175 -45.3122
   -45.3031 -45.2993 -45.2954 -45.2941 -45.2325 -45.2321 -45.2209 -45.2204
    -1.3260  -0.5363  -0.3015  -0.0115   0.4165   0.5982   1.2722   1.3025
    10.5562  10.6133  10.6689  10.9066  10.9365  11.0006  11.2174  11.2593
    11.6072  11.7193  11.7919  11.8006  11.8773  11.9559  11.9564  12.1533
    12.1934  12.2134  12.2964  12.3597  14.3471  14.6504  15.2108  16.0926
    16.5204  16.9169  16.9531  17.2108  17.4121  17.7004  17.7642  17.7888
    18.5145  18.5466  18.8068  19.0842  19.2652  19.3249  19.4802  19.7920
    19.9711  20.3040  20.5719  20.8863  26.4149  27.5426  27.7980  28.9044
    30.3188  30.3776  31.3483  31.7709  31.8500  31.9620  32.5078  33.0134
    33.4512  33.6597  34.1137  35.1378  35.2901  35.4784  35.6161  36.0420
    36.0707  36.6877  37.1205  37.6473  37.9239  38.0265  39.1785  39.3071
    39.4905  39.8314  40.1865  40.7141  41.2047  41.2201  42.0753  42.3005
    42.3762  42.5881  43.1500  43.4365  43.7986  43.8777  44.2712  44.4391
    44.6158  44.6916  45.8980

          k = 0.0000 0.2364 0.1223 (  3669 PWs)   bands (ev):

   -85.3848 -85.3780 -85.3346 -85.2921 -45.3238 -45.3219 -45.3151 -45.3136
   -45.3017 -45.3010 -45.2990 -45.2943 -45.2345 -45.2330 -45.2244 -45.2201
    -1.2436  -0.7008  -0.3225   0.0025   0.4916   0.7497   1.1917   1.2286
    10.5884  10.6316  10.8385  10.8750  10.9446  11.1328  11.1757  11.2116
    11.6027  11.6226  11.7017  11.7616  11.8541  11.9992  12.0148  12.0933
    12.1802  12.2077  12.3662  12.3719  14.5131  14.8016  15.4256  15.9077
    16.0619  16.6333  16.8078  17.0674  17.0858  17.5223  17.8227  18.0465
    18.5962  18.6031  18.8121  19.1421  19.1463  19.3011  19.7945  20.0151
    20.2732  20.2827  20.7226  20.7244  26.6227  27.3678  28.2606  28.9481
    30.2279  30.5219  31.0349  31.5094  31.5919  32.0025  32.8951  32.9335
    33.6118  33.6341  34.0200  34.3100  34.7492  35.4735  35.7403  36.1243
    36.4846  36.5254  37.0551  37.9891  38.1264  38.1522  38.8186  39.3612
    39.5347  40.1152  40.2990  40.4672  40.5163  41.0887  41.8838  42.0443
    42.3765  42.6925  42.9163  43.8355  43.8965  43.9107  44.1331  44.4558
    45.5950  45.6086  45.7729

          k = 0.0000 0.2364-0.2447 (  3666 PWs)   bands (ev):

   -85.3635 -85.3635 -85.3224 -85.3224 -45.3211 -45.3211 -45.3159 -45.3159
   -45.3011 -45.3011 -45.2952 -45.2952 -45.2335 -45.2335 -45.2220 -45.2220
    -1.0136  -1.0136  -0.1791  -0.1791   0.7810   0.7810   1.1022   1.1022
    10.6395  10.6395  10.8809  10.8809  11.1434  11.1434  11.2599  11.2599
    11.4444  11.4444  11.6835  11.6835  11.9013  11.9013  12.0755  12.0755
    12.2132  12.2132  12.3959  12.3959  14.9309  14.9309  15.5412  15.5412
    16.0038  16.0038  16.7379  16.7379  17.4908  17.4908  17.5824  17.5824
    18.8827  18.8827  19.0055  19.0055  19.1631  19.1631  20.1291  20.1291
    20.4017  20.4017  20.6873  20.6873  27.1033  27.1033  28.8213  28.8213
    30.2227  30.2227  30.9317  30.9317  32.0196  32.0196  33.1982  33.1982
    33.3047  33.3047  34.0993  34.0993  34.8536  34.8536  35.6972  35.6972
    36.4811  36.4811  37.5455  37.5455  38.5209  38.5209  38.8364  38.8364
    39.7952  39.7952  40.7630  40.7630  40.8903  40.8903  41.6445  41.6445
    42.6876  42.6876  42.7205  42.7207  43.7947  43.7947  44.8901  44.8901
    45.6900  45.6903  46.2948

          k =-0.4608 0.0000 0.0000 (  3722 PWs)   bands (ev):

   -85.4466 -85.4466 -85.4334 -85.4334 -45.3313 -45.3313 -45.3264 -45.3264
   -45.3048 -45.3048 -45.3017 -45.3017 -45.2345 -45.2345 -45.2290 -45.2290
    -0.6722  -0.6722   0.0468   0.0468   0.2970   0.2970   0.9807   0.9807
    11.0064  11.0064  11.2803  11.2803  11.5202  11.5202  11.6320  11.6320
    11.7976  11.7976  11.8079  11.8079  11.8225  11.8225  12.0073  12.0073
    12.3195  12.3195  12.4208  12.4209  13.9107  13.9107  14.5725  14.5725
    15.0458  15.0458  16.0214  16.0214  16.3741  16.3741  17.7207  17.7207
    18.8656  18.8656  19.2192  19.2192  19.5898  19.5898  20.1542  20.1542
    20.7273  20.7273  21.4620  21.4620  25.5090  25.5090  28.5141  28.5141
    31.9869  31.9869  33.5832  33.5832  33.8136  33.8136  34.9485  34.9485
    34.9986  34.9986  35.5400  35.5400  35.9893  35.9893  36.5732  36.5732
    36.9099  36.9099  37.4494  37.4494  37.7675  37.7675  38.9153  38.9153
    38.9608  38.9608  39.6557  39.6557  39.7610  39.7610  40.1936  40.1936
    40.3554  40.3554  41.7694  41.7694  42.7671  42.7671  43.1841  43.1841
    44.2133  44.2133  44.4635

          k =-0.4608 0.0000 0.1223 (  3710 PWs)   bands (ev):

   -85.4205 -85.4205 -85.4174 -85.4174 -45.3289 -45.3289 -45.3255 -45.3255
   -45.3034 -45.3034 -45.2993 -45.2993 -45.2337 -45.2337 -45.2291 -45.2291
    -0.6526  -0.6526   0.0191   0.0191   0.3048   0.3048   0.9741   0.9741
    11.0951  11.0951  11.3306  11.3306  11.4846  11.4846  11.6401  11.6401
    11.7307  11.7307  11.8316  11.8316  11.9071  11.9071  12.0642  12.0642
    12.1929  12.1929  12.4190  12.4190  13.9362  13.9362  14.4231  14.4231
    15.3168  15.3168  15.5984  15.5984  16.8035  16.8035  17.6382  17.6382
    18.0560  18.0560  19.3248  19.3248  19.8776  19.8776  20.1776  20.1776
    20.9554  20.9554  21.5154  21.5154  25.7856  25.7856  28.5453  28.5453
    32.1713  32.1713  33.1496  33.1496  33.7117  33.7117  34.5542  34.5542
    35.0964  35.0964  35.3675  35.3675  35.6876  35.6877  36.0864  36.0864
    37.2140  37.2140  37.4884  37.4884  37.6687  37.6687  38.0338  38.0338
    39.4138  39.4138  40.0751  40.0751  40.3580  40.3580  40.7153  40.7153
    40.9256  40.9256  42.1943  42.1943  42.5187  42.5187  43.0756  43.0756
    43.5457  43.5459  44.6191

          k =-0.4608 0.0000-0.2447 (  3680 PWs)   bands (ev):

   -85.3870 -85.3870 -85.3519 -85.3519 -45.3240 -45.3240 -45.3234 -45.3234
   -45.2991 -45.2991 -45.2941 -45.2941 -45.2298 -45.2298 -45.2288 -45.2288
    -0.6311  -0.6311  -0.0098  -0.0098   0.3128   0.3128   0.9673   0.9673
    11.2652  11.2652  11.3144  11.3144  11.4218  11.4218  11.6193  11.6193
    11.7575  11.7575  11.8491  11.8491  11.9650  11.9650  12.0335  12.0335
    12.1935  12.1935  12.3980  12.3980  13.8693  13.8693  14.3845  14.3845
    15.1931  15.1931  15.8437  15.8437  16.9706  16.9706  17.3714  17.3714
    17.7225  17.7225  19.1757  19.1757  20.1169  20.1169  20.1721  20.1721
    21.1731  21.1731  21.5683  21.5683  26.1342  26.1342  28.5029  28.5029
    32.5208  32.5208  32.8871  32.8871  33.1484  33.1484  34.3658  34.3658
    34.7333  34.7333  35.6165  35.6165  35.8488  35.8488  36.0528  36.0528
    36.6875  36.6875  37.2161  37.2161  37.3168  37.3168  38.1908  38.1908
    39.8388  39.8388  40.3361  40.3361  40.5531  40.5531  40.8326  40.8326
    41.6342  41.6343  42.3223  42.3222  42.8452  42.8452  42.9547  42.9547
    43.8982  43.8981  44.4972

          k =-0.4608 0.2364 0.0000 (  3686 PWs)   bands (ev):

   -85.3962 -85.3962 -85.3734 -85.3734 -45.3299 -45.3299 -45.3255 -45.3255
   -45.2982 -45.2982 -45.2971 -45.2971 -45.2273 -45.2273 -45.2240 -45.2240
    -0.4154  -0.4154  -0.0180  -0.0180   0.3825   0.3825   0.6785   0.6785
    11.1269  11.1269  11.2135  11.2135  11.3595  11.3595  11.3680  11.3680
    11.7467  11.7467  11.7754  11.7754  11.8590  11.8590  11.8982  11.8982
    12.1167  12.1167  12.2723  12.2723  14.3889  14.3889  14.5788  14.5788
    15.2312  15.2312  16.2807  16.2807  17.1562  17.1562  17.8685  17.8685
    18.5740  18.5740  18.8784  18.8784  19.9673  19.9673  20.3572  20.3572
    20.5398  20.5398  20.8591  20.8591  26.5299  26.5299  28.4534  28.4534
    31.9150  31.9150  32.8931  32.8931  32.9303  32.9303  33.7981  33.7981
    34.8001  34.8001  35.0438  35.0438  35.5220  35.5220  36.0740  36.0740
    37.0831  37.0831  37.3444  37.3444  38.3373  38.3373  38.5469  38.5469
    39.2037  39.2037  39.6982  39.6982  39.8598  39.8598  41.5033  41.5034
    41.7860  41.7860  42.2282  42.2283  42.4380  42.4380  43.3137  43.3138
    44.3419  44.3428  44.7652

          k =-0.4608 0.2364 0.1223 (  3692 PWs)   bands (ev):

   -85.4247 -85.4247 -85.3625 -85.3625 -45.3272 -45.3272 -45.3262 -45.3262
   -45.2999 -45.2999 -45.2977 -45.2977 -45.2314 -45.2314 -45.2240 -45.2240
    -0.3960  -0.3960  -0.0201  -0.0201   0.3731   0.3731   0.6624   0.6624
    11.1803  11.1803  11.2792  11.2792  11.3762  11.3762  11.4232  11.4232
    11.6658  11.6658  11.7397  11.7397  11.8599  11.8599  11.9501  11.9501
    12.0914  12.0914  12.2747  12.2747  14.4452  14.4452  14.5185  14.5185
    15.3911  15.3911  15.7761  15.7761  17.0746  17.0746  17.7650  17.7650
    18.7370  18.7370  19.1265  19.1265  19.9535  19.9535  20.2873  20.2873
    20.5712  20.5712  20.9561  20.9561  26.7367  26.7367  28.6135  28.6135
    31.7041  31.7041  32.7277  32.7277  33.0171  33.0171  33.6616  33.6616
    34.4297  34.4297  34.7586  34.7586  35.1035  35.1035  36.4381  36.4381
    37.0220  37.0220  37.5119  37.5119  38.0314  38.0314  38.8535  38.8535
    39.7169  39.7169  39.8948  39.8948  40.3214  40.3214  41.0111  41.0111
    41.5160  41.5160  42.2265  42.2267  42.8237  42.8237  43.3738  43.3740
    44.1811  44.1813  44.8042

          k =-0.4608 0.2364-0.2447 (  3704 PWs)   bands (ev):

   -85.4534 -85.4534 -85.3738 -85.3738 -45.3279 -45.3279 -45.3269 -45.3269
   -45.3017 -45.3017 -45.2982 -45.2982 -45.2328 -45.2328 -45.2279 -45.2279
    -0.3745  -0.3745  -0.0250  -0.0250   0.3653   0.3653   0.6451   0.6451
    11.2562  11.2562  11.3066  11.3066  11.4523  11.4523  11.4737  11.4737
    11.5611  11.5611  11.6957  11.6957  11.8969  11.8969  11.9591  11.9591
    12.0980  12.0980  12.2471  12.2471  14.3712  14.3712  14.8300  14.8300
    14.9069  14.9069  16.1844  16.1844  16.3110  16.3110  17.9321  17.9321
    18.9288  18.9288  19.2635  19.2635  19.9980  19.9980  20.0365  20.0365
    20.7860  20.7860  20.9631  20.9631  26.9991  26.9991  28.7549  28.7549
    31.4452  31.4452  32.3472  32.3472  33.2570  33.2570  33.6122  33.6122
    33.7521  33.7521  34.9904  34.9904  35.6116  35.6116  35.6755  35.6755
    36.8139  36.8139  37.6396  37.6396  37.7923  37.7923  39.5586  39.5586
    39.7592  39.7592  40.2323  40.2323  40.4597  40.4597  41.3981  41.3981
    41.5997  41.5997  41.9211  41.9211  42.3172  42.3173  43.2347  43.2347
    45.0013  45.0050  45.1602

     the Fermi energy is    39.1994 ev

!    total energy              =   -2247.32476099 Ry
     Harris-Foulkes estimate   =   -2247.32484355 Ry
     estimated scf accuracy    <       0.00008962 Ry

     The total energy is the sum of the following terms:

     one-electron contribution =    -248.46549471 Ry
     hartree contribution      =     322.55250122 Ry
     xc contribution           =    -220.45443570 Ry
     ewald contribution        =   -2100.54850712 Ry
     smearing contrib. (-TS)   =      -0.40882468 Ry

     convergence has been achieved in   7 iterations

     Forces acting on atoms (Ry/au):

     atom    1 type  1   force =     0.00000000   -0.06415982   -0.02948098
     atom    2 type  1   force =     0.00000000    0.06415982    0.02948098
     atom    3 type  1   force =     0.00000000   -0.06415982    0.02948098
     atom    4 type  1   force =     0.00000000    0.06415982   -0.02948098
     atom    5 type  1   force =     0.00000000    0.13240323   -0.20469244
     atom    6 type  1   force =     0.00000000   -0.13240323    0.20469244
     atom    7 type  1   force =     0.00000000    0.13240323    0.20469244
     atom    8 type  1   force =     0.00000000   -0.13240323   -0.20469244
     atom    9 type  2   force =     0.00000000   -0.14784414   -0.02297674
     atom   10 type  2   force =     0.00000000    0.14784414    0.02297674
     atom   11 type  2   force =     0.00000000   -0.14784414    0.02297674
     atom   12 type  2   force =     0.00000000    0.14784414   -0.02297674

     Total force =     0.589240     Total SCF correction =     0.000000


     entering subroutine stress ...

          total   stress  (Ry/bohr**3)                   (kbar)     P= 2874.14
   0.02153252   0.00000000   0.00000000       3167.54      0.00      0.00
   0.00000000   0.01781666   0.00000000          0.00   2620.92      0.00
   0.00000000   0.00000000   0.01926494          0.00      0.00   2833.97


     number of scf cycles    =   2
     number of bfgs steps    =   1

     enthalpy old            =   -2240.3650293123 Ry
     enthalpy new            =   -2247.3247609948 Ry

     CASE: enthalpy_new < enthalpy_old

     small trust_radius: resetting bfgs history

     new trust radius        =       3.5370468103 bohr
     new conv_thr            =       0.0001000000 Ry

     new unit-cell volume =   3555.71823 a.u.^3 (   526.90307 Ang^3 )

CELL_PARAMETERS (alat=  7.01510508)
   1.669279886   0.000000000   0.000000000
   0.000000000   2.037717239   0.000000000
   0.000000000   0.000000000   3.027971034

ATOMIC_POSITIONS (crystal)
Co       0.750000000   0.819438873   0.433393338
Co       0.250000000   0.180561127   0.566606662
Co       0.750000000   0.319438873   0.066606662
Co       0.250000000   0.680561127   0.933393338
Co       0.250000000   0.551971286   0.266420168
Co       0.750000000   0.448028714   0.733579832
Co       0.250000000   0.051971286   0.233579832
Co       0.750000000   0.948028714   0.766420168
Si       0.250000000   0.186629983   0.892015351
Si       0.750000000   0.813370017   0.107984649
Si       0.250000000   0.686629983   0.607984649
Si       0.750000000   0.313370017   0.392015351



     Writing output data file Prototype-La-oP12-Co2Si.save
     NEW-OLD atomic charge density approx. for the potential
     NEW k-points:
        k(    1) = (   0.0000000   0.0000000   0.0000000), wk =   0.0833333
        k(    2) = (   0.0000000   0.0000000   0.0825635), wk =   0.1666667
        k(    3) = (   0.0000000   0.0000000  -0.1651271), wk =   0.0833333
        k(    4) = (   0.0000000   0.1635817   0.0000000), wk =   0.1666667
        k(    5) = (   0.0000000   0.1635817   0.0825635), wk =   0.3333333
        k(    6) = (   0.0000000   0.1635817  -0.1651271), wk =   0.1666667
        k(    7) = (  -0.2995304   0.0000000   0.0000000), wk =   0.0833333
        k(    8) = (  -0.2995304   0.0000000   0.0825635), wk =   0.1666667
        k(    9) = (  -0.2995304   0.0000000  -0.1651271), wk =   0.0833333
        k(   10) = (  -0.2995304   0.1635817   0.0000000), wk =   0.1666667
        k(   11) = (  -0.2995304   0.1635817   0.0825635), wk =   0.3333333
        k(   12) = (  -0.2995304   0.1635817  -0.1651271), wk =   0.1666667

     total cpu time spent up to now is      442.0 secs

     Self-consistent Calculation

     iteration #  1     ecut=    40.00 Ry     beta=0.70
     CG style diagonalization
     c_bands:  4 eigenvalues not converged
     c_bands:  2 eigenvalues not converged
     c_bands:  3 eigenvalues not converged
     c_bands:  2 eigenvalues not converged
     c_bands:  4 eigenvalues not converged
     c_bands:  2 eigenvalues not converged
     c_bands:  1 eigenvalues not converged
     c_bands:  1 eigenvalues not converged
     c_bands:  3 eigenvalues not converged
     ethr =  1.00E-06,  avg # of iterations = 38.4

     total cpu time spent up to now is      738.3 secs

     total energy              =   -2032.27633083 Ry
     Harris-Foulkes estimate   =   -2407.56996658 Ry
     estimated scf accuracy    <     458.03112335 Ry

     iteration #  2     ecut=    40.00 Ry     beta=0.70
     CG style diagonalization
     c_bands:  1 eigenvalues not converged
     c_bands:  1 eigenvalues not converged
     c_bands:  1 eigenvalues not converged
     ethr =  1.00E-02,  avg # of iterations =  9.3

     total cpu time spent up to now is      758.3 secs

     total energy              =   -2049.28589756 Ry
     Harris-Foulkes estimate   =   -2394.98357885 Ry
     estimated scf accuracy    <     701.52376851 Ry

     iteration #  3     ecut=    40.00 Ry     beta=0.70
     CG style diagonalization
     ethr =  1.00E-02,  avg # of iterations =  8.0

     total cpu time spent up to now is      777.7 secs

     total energy              =   -2208.44078805 Ry
     Harris-Foulkes estimate   =   -2223.93864747 Ry
     estimated scf accuracy    <      32.89405797 Ry

     iteration #  4     ecut=    40.00 Ry     beta=0.70
     CG style diagonalization
     ethr =  1.00E-02,  avg # of iterations =  4.3

     total cpu time spent up to now is      787.8 secs

     total energy              =   -2212.04246899 Ry
     Harris-Foulkes estimate   =   -2214.02417425 Ry
     estimated scf accuracy    <       4.24258264 Ry

     iteration #  5     ecut=    40.00 Ry     beta=0.70
     CG style diagonalization
     c_bands:  1 eigenvalues not converged
     ethr =  2.21E-03,  avg # of iterations =  4.3

     total cpu time spent up to now is      797.6 secs

     total energy              =   -2212.88033203 Ry
     Harris-Foulkes estimate   =   -2213.32080476 Ry
     estimated scf accuracy    <       0.96781143 Ry

     iteration #  6     ecut=    40.00 Ry     beta=0.70
     CG style diagonalization
     c_bands:  1 eigenvalues not converged
     c_bands:  2 eigenvalues not converged
     c_bands:  1 eigenvalues not converged
     c_bands:  1 eigenvalues not converged
     c_bands:  3 eigenvalues not converged
     ethr =  5.04E-04,  avg # of iterations =  4.4

     total cpu time spent up to now is      806.9 secs

     total energy              =   -2213.09648432 Ry
     Harris-Foulkes estimate   =   -2213.17609650 Ry
     estimated scf accuracy    <       0.16066281 Ry

     iteration #  7     ecut=    40.00 Ry     beta=0.70
     CG style diagonalization
     c_bands:  2 eigenvalues not converged
     c_bands:  1 eigenvalues not converged
     c_bands:  1 eigenvalues not converged
     c_bands:  1 eigenvalues not converged
     c_bands:  3 eigenvalues not converged
     c_bands:  2 eigenvalues not converged
     c_bands:  1 eigenvalues not converged
     ethr =  8.37E-05,  avg # of iterations =  4.9

     total cpu time spent up to now is      817.8 secs

     total energy              =   -2213.10626950 Ry
     Harris-Foulkes estimate   =   -2213.21871799 Ry
     estimated scf accuracy    <       0.49249706 Ry

     iteration #  8     ecut=    40.00 Ry     beta=0.70
     CG style diagonalization
     c_bands:  1 eigenvalues not converged
     c_bands:  1 eigenvalues not converged
     c_bands:  1 eigenvalues not converged
     c_bands:  1 eigenvalues not converged
     ethr =  8.37E-05,  avg # of iterations =  4.1

     total cpu time spent up to now is      827.4 secs

     total energy              =   -2213.16234847 Ry
     Harris-Foulkes estimate   =   -2213.16506689 Ry
     estimated scf accuracy    <       0.00714199 Ry

     iteration #  9     ecut=    40.00 Ry     beta=0.70
     CG style diagonalization
     c_bands:  1 eigenvalues not converged
     c_bands:  1 eigenvalues not converged
     c_bands:  1 eigenvalues not converged
     c_bands:  1 eigenvalues not converged
     c_bands:  2 eigenvalues not converged
     c_bands:  1 eigenvalues not converged
     c_bands:  1 eigenvalues not converged
     c_bands:  1 eigenvalues not converged
     c_bands:  1 eigenvalues not converged
     c_bands:  1 eigenvalues not converged
     ethr =  3.72E-06,  avg # of iterations =  4.8

     total cpu time spent up to now is      838.6 secs

     total energy              =   -2213.16443388 Ry
     Harris-Foulkes estimate   =   -2213.16517632 Ry
     estimated scf accuracy    <       0.00222459 Ry

     iteration # 10     ecut=    40.00 Ry     beta=0.70
     CG style diagonalization
     c_bands:  1 eigenvalues not converged
     c_bands:  2 eigenvalues not converged
     c_bands:  1 eigenvalues not converged
     c_bands:  1 eigenvalues not converged
     ethr =  1.16E-06,  avg # of iterations =  3.7

     total cpu time spent up to now is      846.5 secs

     total energy              =   -2213.16468928 Ry
     Harris-Foulkes estimate   =   -2213.16480527 Ry
     estimated scf accuracy    <       0.00035832 Ry

     iteration # 11     ecut=    40.00 Ry     beta=0.70
     CG style diagonalization
     c_bands:  1 eigenvalues not converged
     c_bands:  1 eigenvalues not converged
     c_bands:  2 eigenvalues not converged
     c_bands:  1 eigenvalues not converged
     c_bands:  1 eigenvalues not converged
     c_bands:  1 eigenvalues not converged
     ethr =  1.87E-07,  avg # of iterations =  4.4

     total cpu time spent up to now is      886.1 secs

     End of self-consistent calculation

          k = 0.0000 0.0000 0.0000 (  3675 PWs)   bands (ev):

  -115.7588-115.7040-115.6929-115.6712 -82.2869 -81.9701 -81.8753 -81.8596
   -81.6852 -81.5965 -81.5676 -81.5044 -80.7193 -80.5770 -80.4140 -80.4128
   -28.1499 -28.1198 -28.1103 -28.0855 -28.0366 -28.0288 -27.9264 -27.9209
   -15.1197 -14.8556 -14.6898 -14.6533 -14.5298 -14.4211 -14.4018 -14.3723
   -13.9761 -13.9339 -13.7365 -13.6915 -13.6792 -13.5685 -13.5163 -13.3053
   -13.2482 -13.0663 -13.0657 -12.9385  -9.4565  -9.4212  -9.3927  -9.3681
    -9.3552  -9.3495  -9.3409  -9.3124  -9.2857  -9.2814  -9.2718  -9.2603
    -9.2022  -9.1761  -9.1633  -9.1442  -9.1396  -9.1044  -9.0874  -9.0864
    -9.0253  -9.0207  -8.9995  -8.9942  -0.9503  -0.7588  -0.7535  -0.6659
     6.7972   6.8994   7.0271   7.0940   7.1312   7.3758   7.7111   7.7695
     7.8315   7.8340   7.9036   8.4385   8.8391   8.9396   9.4082   9.4084
     9.4419   9.4647   9.6080   9.7740   9.8677   9.9083  10.0298  10.0767
    10.4724  10.5912  10.6366  10.7777  10.7778  11.0041  11.0344  11.0895
    11.0991  11.2929  11.3061  11.3585  11.6480  11.7008  11.7198  11.7576
    11.7938  11.9270  12.2297

          k = 0.0000 0.0000 0.0826 (  3675 PWs)   bands (ev):

  -115.7550-115.7048-115.6940-115.6882 -82.2521 -82.0261 -82.0204 -81.9152
   -81.6798 -81.6103 -81.5604 -81.3689 -80.6361 -80.5924 -80.4685 -80.2443
   -28.1586 -28.1344 -28.1006 -28.0774 -28.0185 -28.0117 -27.9643 -27.8980
   -14.9147 -14.8286 -14.7722 -14.6864 -14.6093 -14.6029 -14.4464 -14.3922
   -14.0613 -14.0328 -13.7498 -13.7360 -13.6189 -13.5362 -13.4435 -13.2484
   -13.1825 -13.1689 -12.8595 -12.7526  -9.4532  -9.4305  -9.3954  -9.3776
    -9.3725  -9.3488  -9.3346  -9.3305  -9.3029  -9.3002  -9.2770  -9.2341
    -9.1953  -9.1660  -9.1627  -9.1493  -9.1090  -9.0967  -9.0882  -9.0751
    -9.0187  -9.0152  -9.0142  -9.0076  -0.9294  -0.8146  -0.7108  -0.6692
     6.7707   6.9175   7.0257   7.1209   7.1937   7.3307   7.5480   7.6566
     7.8268   7.8732   7.9184   8.3095   9.0117   9.0953   9.3087   9.3429
     9.5257   9.5554   9.5799   9.7807   9.8715   9.9471   9.9946  10.2298
    10.6355  10.6511  10.6664  10.8554  10.9177  11.0428  11.0588  11.1180
    11.1541  11.2821  11.3255  11.3421  11.4434  11.6643  11.6799  11.7632
    11.8163  11.8802  12.1237

          k = 0.0000 0.0000-0.1651 (  3690 PWs)   bands (ev):

  -115.7523-115.7523-115.7176-115.7176 -82.2466 -82.2466 -82.0544 -82.0544
   -81.6310 -81.6310 -81.5404 -81.5404 -80.5787 -80.5787 -80.3045 -80.3045
   -28.1819 -28.1819 -28.0810 -28.0810 -28.0301 -28.0301 -27.9348 -27.9348
   -15.0030 -15.0030 -14.8320 -14.8320 -14.6588 -14.6588 -14.6245 -14.6245
   -14.0305 -14.0305 -13.7334 -13.7334 -13.4088 -13.4088 -13.3111 -13.3111
   -13.2533 -13.2533 -12.8747 -12.8747  -9.4504  -9.4504  -9.4273  -9.4273
    -9.3679  -9.3679  -9.3148  -9.3148  -9.3124  -9.3124  -9.2597  -9.2597
    -9.1690  -9.1690  -9.1495  -9.1495  -9.1345  -9.1345  -9.1004  -9.1004
    -9.0372  -9.0372  -9.0097  -9.0097  -0.8779  -0.8779  -0.6824  -0.6824
     6.7980   6.7980   7.1549   7.1549   7.3282   7.3282   7.3537   7.3537
     7.9271   7.9271   8.0222   8.0222   9.1170   9.1170   9.3861   9.3861
     9.3864   9.3864   9.7608   9.7608   9.9644   9.9644  10.4484  10.4484
    10.5446  10.5446  10.9148  10.9148  10.9311  10.9311  11.1132  11.1132
    11.1328  11.1328  11.3333  11.3333  11.4337  11.4337  11.6884  11.6884
    11.9720  11.9721  12.1313

          k = 0.0000 0.1636 0.0000 (  3664 PWs)   bands (ev):

  -115.7385-115.7144-115.6740-115.6572 -82.1207 -82.0160 -81.9340 -81.9011
   -81.7049 -81.6420 -81.4109 -81.3249 -80.6625 -80.4872 -80.3908 -80.3548
   -28.1272 -28.1241 -28.0858 -28.0781 -28.0137 -27.9571 -27.9475 -27.9349
   -14.8427 -14.8260 -14.6378 -14.6351 -14.5478 -14.4688 -14.4597 -14.2838
   -14.0417 -13.8370 -13.7940 -13.7541 -13.6419 -13.5536 -13.3073 -13.2897
   -13.1974 -13.0822 -12.8448 -12.7928  -9.3947  -9.3868  -9.3821  -9.3579
    -9.3488  -9.3343  -9.3050  -9.3018  -9.2908  -9.2654  -9.2639  -9.2501
    -9.1910  -9.1793  -9.1669  -9.1494  -9.1256  -9.1004  -9.0982  -9.0827
    -9.0511  -9.0467  -9.0329  -8.9950  -0.8690  -0.7639  -0.7167  -0.6783
     6.5734   6.6312   6.7938   7.1450   7.1937   7.2462   7.4189   7.5432
     7.8118   7.8165   7.9514   7.9834   9.2369   9.4681   9.5272   9.5552
     9.6834   9.7475   9.7871   9.8027  10.0733  10.2033  10.2066  10.2089
    10.2463  10.5011  10.6234  10.7241  10.8792  10.9054  11.0714  11.0827
    11.3318  11.3363  11.4306  11.5444  11.6361  11.6367  11.6817  11.8455
    11.8716  12.0382  12.1891

          k = 0.0000 0.1636 0.0826 (  3669 PWs)   bands (ev):

  -115.7377-115.7294-115.6852-115.6666 -82.1247 -82.0997 -82.0007 -81.9404
   -81.6496 -81.6219 -81.5298 -81.3836 -80.6204 -80.4701 -80.3898 -80.2776
   -28.1589 -28.1303 -28.0769 -28.0611 -28.0261 -27.9595 -27.9540 -27.9384
   -14.8983 -14.8357 -14.8111 -14.6473 -14.5870 -14.5380 -14.4630 -14.4014
   -14.0247 -13.9321 -13.7771 -13.7455 -13.6296 -13.5014 -13.3351 -13.2376
   -13.0891 -13.0419 -12.9297 -12.7631  -9.4242  -9.3975  -9.3731  -9.3674
    -9.3439  -9.3334  -9.3188  -9.3027  -9.3012  -9.2875  -9.2615  -9.2100
    -9.2079  -9.1825  -9.1719  -9.1548  -9.1236  -9.0956  -9.0904  -9.0756
    -9.0587  -9.0497  -9.0295  -9.0070  -0.8543  -0.7828  -0.7067  -0.6818
     6.5564   6.6485   6.7128   7.0747   7.2331   7.2688   7.4041   7.4465
     7.8109   7.9000   7.9551   7.9744   9.3767   9.4965   9.5341   9.5591
     9.6358   9.7445   9.7660   9.9631   9.9759  10.1014  10.1292  10.3828
    10.4522  10.5132  10.6826  10.7837  10.8569  10.8981  11.1092  11.1740
    11.1772  11.2921  11.5046  11.5667  11.5891  11.6171  11.6793  11.8054
    11.9569  12.0685  12.1811

          k = 0.0000 0.1636-0.1651 (  3666 PWs)   bands (ev):

  -115.7089-115.7089-115.6916-115.6916 -82.0728 -82.0728 -82.0047 -82.0047
   -81.5905 -81.5905 -81.4598 -81.4598 -80.5234 -80.5234 -80.3638 -80.3638
   -28.1289 -28.1289 -28.0590 -28.0590 -27.9963 -27.9963 -27.9574 -27.9574
   -14.8261 -14.8261 -14.6783 -14.6783 -14.5983 -14.5983 -14.4242 -14.4242
   -13.9263 -13.9263 -13.7909 -13.7909 -13.4772 -13.4772 -13.3651 -13.3651
   -13.0860 -13.0860 -12.8317 -12.8317  -9.3911  -9.3911  -9.3815  -9.3815
    -9.3351  -9.3351  -9.3024  -9.3024  -9.2822  -9.2822  -9.2269  -9.2269
    -9.1949  -9.1949  -9.1661  -9.1661  -9.1029  -9.1029  -9.0847  -9.0847
    -9.0651  -9.0651  -9.0267  -9.0267  -0.8202  -0.8202  -0.6930  -0.6930
     6.5766   6.5766   6.8347   6.8347   7.3286   7.3286   7.3933   7.3933
     7.8618   7.8618   7.9451   7.9451   9.4532   9.4532   9.6268   9.6268
     9.7368   9.7368   9.7803   9.7803  10.0152  10.0152  10.3617  10.3617
    10.6127  10.6127  10.8030  10.8030  10.8581  10.8581  10.9934  10.9934
    11.2344  11.2344  11.5229  11.5229  11.5860  11.5860  11.8197  11.8197
    12.1705  12.1706  12.2424

          k =-0.2995 0.0000 0.0000 (  3722 PWs)   bands (ev):

  -115.7709-115.7709-115.7405-115.7405 -82.1311 -82.1311 -82.0351 -82.0351
   -81.7373 -81.7373 -81.6903 -81.6903 -80.9570 -80.9570 -80.7501 -80.7501
   -28.1676 -28.1676 -28.1344 -28.1344 -28.0788 -28.0788 -28.0684 -28.0684
   -14.8910 -14.8910 -14.8816 -14.8816 -14.8550 -14.8550 -14.5104 -14.5104
   -14.0011 -14.0011 -13.8537 -13.8537 -13.6845 -13.6845 -13.6456 -13.6456
   -13.5408 -13.5408 -13.5296 -13.5296  -9.4658  -9.4658  -9.4071  -9.4071
    -9.3948  -9.3948  -9.3767  -9.3767  -9.3662  -9.3662  -9.2151  -9.2151
    -9.1920  -9.1920  -9.1911  -9.1911  -9.1495  -9.1495  -9.1007  -9.1007
    -9.0844  -9.0844  -8.9924  -8.9924  -0.7958  -0.7958  -0.7333  -0.7333
     6.7813   6.7813   7.1903   7.1903   7.3165   7.3165   7.3919   7.3919
     7.9167   7.9167   8.1254   8.1254   9.2389   9.2389   9.2598   9.2598
     9.6851   9.6851   9.8766   9.8766   9.9128   9.9128  10.3847  10.3847
    10.4607  10.4607  10.5004  10.5004  10.8741  10.8741  10.9007  10.9007
    10.9821  10.9821  11.1312  11.1312  11.1438  11.1438  11.2934  11.2934
    11.8755  11.8755  12.0707

          k =-0.2995 0.0000 0.0826 (  3710 PWs)   bands (ev):

  -115.7517-115.7517-115.7360-115.7360 -82.1211 -82.1211 -82.0434 -82.0434
   -81.6822 -81.6822 -81.5881 -81.5881 -80.8820 -80.8820 -80.7000 -80.7000
   -28.1542 -28.1542 -28.1231 -28.1231 -28.0697 -28.0697 -28.0385 -28.0385
   -14.9119 -14.9119 -14.8303 -14.8303 -14.6886 -14.6886 -14.5642 -14.5642
   -13.9398 -13.9398 -13.8111 -13.8111 -13.6571 -13.6571 -13.5542 -13.5542
   -13.5012 -13.5012 -13.3980 -13.3980  -9.4573  -9.4573  -9.4139  -9.4139
    -9.3997  -9.3997  -9.3686  -9.3686  -9.3330  -9.3330  -9.2201  -9.2201
    -9.1980  -9.1980  -9.1571  -9.1571  -9.1350  -9.1350  -9.0944  -9.0944
    -9.0807  -9.0807  -9.0049  -9.0049  -0.7928  -0.7928  -0.7331  -0.7331
     6.6939   6.6939   7.3006   7.3006   7.3869   7.3869   7.4020   7.4020
     7.8915   7.8915   8.0195   8.0195   9.1234   9.1234   9.4300   9.4300
     9.6457   9.6457   9.8598   9.8598   9.9890   9.9890  10.3239  10.3239
    10.5112  10.5112  10.6348  10.6348  10.8208  10.8208  10.9208  10.9208
    11.0185  11.0185  11.1402  11.1402  11.2814  11.2814  11.3779  11.3779
    11.7866  11.7866  12.0173

          k =-0.2995 0.0000-0.1651 (  3680 PWs)   bands (ev):

  -115.7275-115.7275-115.6947-115.6947 -82.0784 -82.0784 -82.0582 -82.0582
   -81.5605 -81.5605 -81.3550 -81.3550 -80.7109 -80.7109 -80.6299 -80.6299
   -28.1077 -28.1077 -28.0895 -28.0895 -28.0227 -28.0227 -28.0173 -28.0173
   -14.7468 -14.7468 -14.7182 -14.7182 -14.7114 -14.7114 -14.3961 -14.3961
   -13.8529 -13.8529 -13.8245 -13.8245 -13.4744 -13.4744 -13.4153 -13.4153
   -13.3190 -13.3190 -13.1839 -13.1839  -9.4564  -9.4564  -9.4081  -9.4081
    -9.3698  -9.3698  -9.3544  -9.3544  -9.2664  -9.2664  -9.2270  -9.2270
    -9.1927  -9.1927  -9.1292  -9.1292  -9.1068  -9.1068  -9.0966  -9.0966
    -9.0650  -9.0650  -9.0005  -9.0005  -0.7890  -0.7890  -0.7332  -0.7332
     6.6432   6.6432   7.3277   7.3277   7.3865   7.3865   7.6380   7.6380
     7.7620   7.7620   7.9730   7.9730   9.0419   9.0419   9.5701   9.5701
     9.6855   9.6855   9.7685   9.7685  10.0497  10.0497  10.3371  10.3371
    10.4498  10.4498  10.7040  10.7040  10.8298  10.8298  10.9930  10.9930
    11.0708  11.0708  11.2478  11.2478  11.4635  11.4635  11.4765  11.4765
    11.7558  11.7560  11.7749

          k =-0.2995 0.1636 0.0000 (  3686 PWs)   bands (ev):

  -115.7105-115.7105-115.7030-115.7030 -81.9942 -81.9942 -81.9826 -81.9826
   -81.5930 -81.5930 -81.5116 -81.5116 -80.9260 -80.9260 -80.7320 -80.7320
   -28.1211 -28.1211 -28.1082 -28.1082 -28.0439 -28.0439 -28.0332 -28.0332
   -14.7090 -14.7090 -14.6429 -14.6429 -14.5363 -14.5363 -14.5272 -14.5272
   -13.9561 -13.9561 -13.7950 -13.7950 -13.6268 -13.6268 -13.5744 -13.5744
   -13.4357 -13.4357 -13.4065 -13.4065  -9.4125  -9.4125  -9.3785  -9.3785
    -9.3656  -9.3656  -9.3220  -9.3220  -9.3011  -9.3011  -9.2162  -9.2162
    -9.1865  -9.1865  -9.1590  -9.1590  -9.1224  -9.1224  -9.0968  -9.0968
    -9.0776  -9.0776  -9.0649  -9.0649  -0.7550  -0.7550  -0.7233  -0.7233
     6.7600   6.7600   6.7678   6.7678   7.3715   7.3715   7.5242   7.5242
     7.6626   7.6626   7.8880   7.8880   9.5690   9.5690   9.6688   9.6688
     9.8225   9.8225   9.9450   9.9450  10.1062  10.1062  10.1513  10.1513
    10.4458  10.4458  10.5796  10.5796  10.7339  10.7339  10.9962  10.9962
    11.1780  11.1780  11.1944  11.1944  11.4337  11.4337  11.4712  11.4712
    12.0095  12.0096  12.0651

          k =-0.2995 0.1636 0.0826 (  3692 PWs)   bands (ev):

  -115.7478-115.7478-115.6898-115.6898 -82.1553 -82.1553 -81.9562 -81.9562
   -81.6060 -81.6060 -81.5097 -81.5097 -80.7876 -80.7876 -80.7475 -80.7475
   -28.1258 -28.1258 -28.1157 -28.1157 -28.0408 -28.0408 -28.0337 -28.0337
   -14.8467 -14.8467 -14.7447 -14.7447 -14.5706 -14.5706 -14.4701 -14.4701
   -14.0074 -14.0074 -13.8891 -13.8891 -13.6370 -13.6370 -13.5274 -13.5274
   -13.3584 -13.3584 -13.2715 -13.2715  -9.4079  -9.4079  -9.3977  -9.3977
    -9.3678  -9.3678  -9.3384  -9.3384  -9.2926  -9.2926  -9.2167  -9.2167
    -9.2009  -9.2009  -9.1540  -9.1540  -9.1210  -9.1210  -9.0983  -9.0983
    -9.0793  -9.0793  -9.0654  -9.0654  -0.7531  -0.7531  -0.7229  -0.7229
     6.6353   6.6353   6.8466   6.8466   7.3634   7.3634   7.4652   7.4652
     7.7439   7.7439   7.8905   7.8905   9.4492   9.4492   9.6953   9.6953
     9.7996   9.7996  10.0218  10.0218  10.1356  10.1356  10.2761  10.2761
    10.4249  10.4249  10.6998  10.6998  10.7586  10.7586  10.9409  10.9409
    11.1506  11.1506  11.2689  11.2689  11.4361  11.4361  11.5347  11.5347
    11.8702  11.8702  12.1200

          k =-0.2995 0.1636-0.1651 (  3704 PWs)   bands (ev):

  -115.7718-115.7718-115.7017-115.7017 -82.2422 -82.2422 -82.0546 -82.0546
   -81.6377 -81.6377 -81.4263 -81.4263 -80.7919 -80.7919 -80.7910 -80.7910
   -28.1384 -28.1384 -28.1323 -28.1323 -28.0580 -28.0580 -28.0341 -28.0341
   -14.9879 -14.9879 -14.8038 -14.8038 -14.5845 -14.5845 -14.5523 -14.5523
   -14.0307 -14.0307 -13.9596 -13.9596 -13.6284 -13.6284 -13.6278 -13.6278
   -13.3682 -13.3682 -13.1831 -13.1831  -9.4214  -9.4214  -9.4169  -9.4169
    -9.3635  -9.3635  -9.3347  -9.3347  -9.3030  -9.3030  -9.2166  -9.2166
    -9.2146  -9.2146  -9.1582  -9.1582  -9.1181  -9.1181  -9.1095  -9.1095
    -9.0846  -9.0846  -9.0752  -9.0752  -0.7519  -0.7519  -0.7228  -0.7228
     6.5706   6.5706   6.8580   6.8580   7.3188   7.3188   7.4830   7.4830
     7.8166   7.8166   7.8681   7.8681   9.3690   9.3690   9.6864   9.6864
     9.8043   9.8043  10.1092  10.1092  10.1176  10.1176  10.3546  10.3546
    10.4797  10.4797  10.7414  10.7414  10.8083  10.8083  11.0501  11.0501
    11.1221  11.1221  11.3579  11.3579  11.3700  11.3700  11.5756  11.5756
    11.6153  11.6153  12.1247

     the Fermi energy is    10.3029 ev

!    total energy              =   -2213.16477051 Ry
     Harris-Foulkes estimate   =   -2213.16478894 Ry
     estimated scf accuracy    <       0.00002168 Ry

     The total energy is the sum of the following terms:

     one-electron contribution =   -1174.63037385 Ry
     hartree contribution      =     571.51724841 Ry
     xc contribution           =    -195.56585334 Ry
     ewald contribution        =   -1413.24038328 Ry
     smearing contrib. (-TS)   =      -1.24540844 Ry

     convergence has been achieved in  11 iterations

     Forces acting on atoms (Ry/au):

     atom    1 type  1   force =     0.00000000   -0.00077065   -0.00049009
     atom    2 type  1   force =     0.00000000    0.00077065    0.00049009
     atom    3 type  1   force =     0.00000000   -0.00077065    0.00049009
     atom    4 type  1   force =     0.00000000    0.00077065   -0.00049009
     atom    5 type  1   force =     0.00000000    0.00036876    0.00322566
     atom    6 type  1   force =     0.00000000   -0.00036876   -0.00322566
     atom    7 type  1   force =     0.00000000    0.00036876   -0.00322566
     atom    8 type  1   force =     0.00000000   -0.00036876    0.00322566
     atom    9 type  2   force =     0.00000000   -0.00908307   -0.00778373
     atom   10 type  2   force =     0.00000000    0.00908307    0.00778373
     atom   11 type  2   force =     0.00000000   -0.00908307    0.00778373
     atom   12 type  2   force =     0.00000000    0.00908307   -0.00778373

     Total force =     0.024857     Total SCF correction =     0.000000


     entering subroutine stress ...

          total   stress  (Ry/bohr**3)                   (kbar)     P=-3606.98
  -0.02700826   0.00000000   0.00000000      -3973.05      0.00      0.00
   0.00000000  -0.02248163   0.00000000          0.00  -3307.16      0.00
   0.00000000   0.00000000  -0.02406929          0.00      0.00  -3540.71


     number of scf cycles    =   3
     number of bfgs steps    =   2

     enthalpy old            =   -2247.3247609948 Ry
     enthalpy new            =   -2213.1647705052 Ry

     CASE: enthalpy_new > enthalpy_old

     new trust radius        =       1.0000368702 bohr

     trust_radius < trust_radius_min

     resetting bfgs history

     Message from routine bfgs:
     history already reset at previous step: stopping
     new conv_thr            =       0.0001000000 Ry

     new unit-cell volume =   1267.46216 a.u.^3 (   187.81851 Ang^3 )

CELL_PARAMETERS (alat=  7.01510508)
   1.155121706   0.000000000   0.000000000
   0.000000000   1.476198771   0.000000000
   0.000000000   0.000000000   2.153078562

ATOMIC_POSITIONS (crystal)
Co       0.750000000   0.825408461   0.435293433
Co       0.250000000   0.174591539   0.564706567
Co       0.750000000   0.325408461   0.064706567
Co       0.250000000   0.674591539   0.935293433
Co       0.250000000   0.539652163   0.279612920
Co       0.750000000   0.460347837   0.720387080
Co       0.250000000   0.039652163   0.220387080
Co       0.750000000   0.960347837   0.779612920
Si       0.250000000   0.200385766   0.893496238
Si       0.750000000   0.799614234   0.106503762
Si       0.250000000   0.700385766   0.606503762
Si       0.750000000   0.299614234   0.393496238



     Writing output data file Prototype-La-oP12-Co2Si.save
     NEW-OLD atomic charge density approx. for the potential
     NEW k-points:
        k(    1) = (   0.0000000   0.0000000   0.0000000), wk =   0.0833333
        k(    2) = (   0.0000000   0.0000000   0.1161128), wk =   0.1666667
        k(    3) = (   0.0000000   0.0000000  -0.2322256), wk =   0.0833333
        k(    4) = (   0.0000000   0.2258052   0.0000000), wk =   0.1666667
        k(    5) = (   0.0000000   0.2258052   0.1161128), wk =   0.3333333
        k(    6) = (   0.0000000   0.2258052  -0.2322256), wk =   0.1666667
        k(    7) = (  -0.4328548   0.0000000   0.0000000), wk =   0.0833333
        k(    8) = (  -0.4328548   0.0000000   0.1161128), wk =   0.1666667
        k(    9) = (  -0.4328548   0.0000000  -0.2322256), wk =   0.0833333
        k(   10) = (  -0.4328548   0.2258052   0.0000000), wk =   0.1666667
        k(   11) = (  -0.4328548   0.2258052   0.1161128), wk =   0.3333333
        k(   12) = (  -0.4328548   0.2258052  -0.2322256), wk =   0.1666667

     total cpu time spent up to now is      910.5 secs

     Self-consistent Calculation

     iteration #  1     ecut=    40.00 Ry     beta=0.70
     CG style diagonalization
     c_bands:  4 eigenvalues not converged
     c_bands:  5 eigenvalues not converged
     c_bands:  2 eigenvalues not converged
     c_bands:  1 eigenvalues not converged
     c_bands:  1 eigenvalues not converged
     c_bands:  3 eigenvalues not converged
     c_bands:  5 eigenvalues not converged
     c_bands:  1 eigenvalues not converged
     c_bands:  5 eigenvalues not converged
     c_bands:  5 eigenvalues not converged
     ethr =  1.00E-06,  avg # of iterations = 34.5

     total cpu time spent up to now is     1007.7 secs

     total energy              =   -2072.60745052 Ry
     Harris-Foulkes estimate   =   -2476.93818198 Ry
     estimated scf accuracy    <     492.32553965 Ry

     iteration #  2     ecut=    40.00 Ry     beta=0.70
     CG style diagonalization
     ethr =  1.00E-02,  avg # of iterations = 10.4

     total cpu time spent up to now is     1031.5 secs

     total energy              =   -2147.33371718 Ry
     Harris-Foulkes estimate   =   -2333.93763604 Ry
     estimated scf accuracy    <     311.29531236 Ry

     iteration #  3     ecut=    40.00 Ry     beta=0.70
     CG style diagonalization
     c_bands:  1 eigenvalues not converged
     c_bands:  1 eigenvalues not converged
     ethr =  1.00E-02,  avg # of iterations =  7.6

     total cpu time spent up to now is     1072.2 secs

     total energy              =   -2241.73748058 Ry
     Harris-Foulkes estimate   =   -2260.00961284 Ry
     estimated scf accuracy    <      36.79695950 Ry

     iteration #  4     ecut=    40.00 Ry     beta=0.70
     CG style diagonalization
     ethr =  1.00E-02,  avg # of iterations =  4.0

     total cpu time spent up to now is     1081.7 secs

     total energy              =   -2248.74537549 Ry
     Harris-Foulkes estimate   =   -2250.52725342 Ry
     estimated scf accuracy    <       3.32859552 Ry

     iteration #  5     ecut=    40.00 Ry     beta=0.70
     CG style diagonalization
     ethr =  1.73E-03,  avg # of iterations =  4.0

     total cpu time spent up to now is     1090.0 secs

     total energy              =   -2249.60621240 Ry
     Harris-Foulkes estimate   =   -2249.76779939 Ry
     estimated scf accuracy    <       0.31151782 Ry

     iteration #  6     ecut=    40.00 Ry     beta=0.70
     CG style diagonalization
     c_bands:  1 eigenvalues not converged
     c_bands:  2 eigenvalues not converged
     c_bands:  1 eigenvalues not converged
     ethr =  1.62E-04,  avg # of iterations =  4.6

     total cpu time spent up to now is     1100.1 secs

     total energy              =   -2249.71403317 Ry
     Harris-Foulkes estimate   =   -2249.78021078 Ry
     estimated scf accuracy    <       0.13911689 Ry

     iteration #  7     ecut=    40.00 Ry     beta=0.70
     CG style diagonalization
     ethr =  7.25E-05,  avg # of iterations =  3.6

     total cpu time spent up to now is     1107.6 secs

     total energy              =   -2249.74740715 Ry
     Harris-Foulkes estimate   =   -2249.75351226 Ry
     estimated scf accuracy    <       0.01210559 Ry

     iteration #  8     ecut=    40.00 Ry     beta=0.70
     CG style diagonalization
     c_bands:  1 eigenvalues not converged
     c_bands:  1 eigenvalues not converged
     c_bands:  1 eigenvalues not converged
     c_bands:  2 eigenvalues not converged
     ethr =  6.30E-06,  avg # of iterations =  4.3

     total cpu time spent up to now is     1121.6 secs

     total energy              =   -2249.75025530 Ry
     Harris-Foulkes estimate   =   -2249.75089716 Ry
     estimated scf accuracy    <       0.00114075 Ry

     iteration #  9     ecut=    40.00 Ry     beta=0.70
     CG style diagonalization
     c_bands:  1 eigenvalues not converged
     c_bands:  1 eigenvalues not converged
     c_bands:  1 eigenvalues not converged
     c_bands:  2 eigenvalues not converged
     ethr =  5.94E-07,  avg # of iterations =  4.5

     total cpu time spent up to now is     1131.2 secs

     total energy              =   -2249.75073554 Ry
     Harris-Foulkes estimate   =   -2249.75081018 Ry
     estimated scf accuracy    <       0.00013561 Ry

     iteration # 10     ecut=    40.00 Ry     beta=0.70
     CG style diagonalization
     c_bands:  1 eigenvalues not converged
     c_bands:  2 eigenvalues not converged
     ethr =  7.06E-08,  avg # of iterations =  4.0

     total cpu time spent up to now is     1161.0 secs

     End of self-consistent calculation

          k = 0.0000 0.0000 0.0000 (  3675 PWs)   bands (ev):

   -89.9497 -89.9035 -89.8943 -89.8464 -50.9112 -50.9101 -50.9081 -50.9063
   -50.9059 -50.9058 -50.9057 -50.9057 -50.8769 -50.8754 -50.8740 -50.8703
    -6.2212  -5.5391  -5.3307  -4.9428  -4.8089  -4.5192  -4.4738  -4.4722
     6.1536   6.1574   6.2333   6.3908   6.4173   6.4340   6.4473   6.6392
     6.6586   6.6829   6.7474   6.8218   6.8582   6.9132   6.9577   6.9657
     6.9989   7.0018   7.0474   7.0667   9.7582  10.1005  10.2741  10.9511
    11.0112  11.6804  11.7850  11.8923  12.1111  12.2451  12.5212  12.6800
    12.9897  13.1095  13.4005  13.5338  13.5824  13.9534  13.9662  14.0825
    14.2799  14.5884  15.3276  15.4429  20.1341  20.9274  21.4414  22.2653
    24.8254  25.7224  26.2604  26.9139  27.1702  27.2768  28.0952  28.2716
    28.3721  29.1329  29.5165  29.5280  29.6890  29.9251  29.9523  30.0583
    30.3099  31.0236  32.1506  32.5127  32.6037  32.6551  32.7192  33.1069
    33.8281  34.2250  34.5019  34.7371  35.0773  35.1505  35.3728  35.4271
[...]
     estimated scf accuracy    <       0.47113512 Ry

     iteration #  7     ecut=    40.00 Ry     beta=0.70
     CG style diagonalization
     c_bands:  1 eigenvalues not converged
     c_bands:  1 eigenvalues not converged
     c_bands:  2 eigenvalues not converged
     ethr =  2.45E-04,  avg # of iterations =  4.3

     total cpu time spent up to now is     1684.8 secs

     total energy              =   -2252.50592988 Ry
     Harris-Foulkes estimate   =   -2252.52483114 Ry
     estimated scf accuracy    <       0.04347184 Ry

     iteration #  8     ecut=    40.00 Ry     beta=0.70
     CG style diagonalization
     c_bands:  1 eigenvalues not converged
     c_bands:  1 eigenvalues not converged
     c_bands:  1 eigenvalues not converged
     ethr =  2.26E-05,  avg # of iterations =  4.6

     total cpu time spent up to now is     1703.3 secs

     total energy              =   -2252.50645878 Ry
     Harris-Foulkes estimate   =   -2252.51864134 Ry
     estimated scf accuracy    <       0.02146871 Ry

     iteration #  9     ecut=    40.00 Ry     beta=0.70
     CG style diagonalization
     c_bands:  1 eigenvalues not converged
     c_bands:  1 eigenvalues not converged
     ethr =  1.12E-05,  avg # of iterations =  3.6

     total cpu time spent up to now is     1716.1 secs

     total energy              =   -2252.51073733 Ry
     Harris-Foulkes estimate   =   -2252.51133415 Ry
     estimated scf accuracy    <       0.00109043 Ry

     iteration # 10     ecut=    40.00 Ry     beta=0.70
     CG style diagonalization
     c_bands:  1 eigenvalues not converged
     c_bands:  1 eigenvalues not converged
     c_bands:  1 eigenvalues not converged
     c_bands:  1 eigenvalues not converged
     ethr =  5.68E-07,  avg # of iterations =  5.3

     total cpu time spent up to now is     1749.6 secs

     total energy              =   -2252.51139848 Ry
     Harris-Foulkes estimate   =   -2252.51177966 Ry
     estimated scf accuracy    <       0.00067770 Ry

     iteration # 11     ecut=    40.00 Ry     beta=0.70
     CG style diagonalization
     c_bands:  1 eigenvalues not converged
     ethr =  3.53E-07,  avg # of iterations =  3.6

     total cpu time spent up to now is     1788.6 secs

     End of self-consistent calculation

          k = 0.0000 0.0000 0.0000 (  5435 PWs)   bands (ev):

   -91.7595 -91.7523 -91.6856 -91.6725 -50.5885 -50.5836 -50.5823 -50.5774
   -50.5760 -50.5758 -50.5728 -50.5683 -50.5506 -50.5472 -50.5453 -50.5377
    -6.2141  -5.5282  -5.3137  -4.9238  -4.7895  -4.5043  -4.4571  -4.4544
     6.2765   6.3007   6.3799   6.5435   6.5453   6.5652   6.5961   6.8105
     6.8242   6.8605   6.9150   6.9871   7.0151   7.0928   7.1086   7.1662
     7.1749   7.1790   7.2358   7.2495   9.6984  10.0444  10.1937  10.9089
    10.9263  11.6521  11.7168  11.8264  12.0678  12.1899  12.4776  12.6018
    12.9198  13.0247  13.3412  13.4770  13.5047  13.8848  13.8851  13.9974
    14.1942  14.5107  15.2523  15.3469  19.7907  20.6247  21.0518  21.9006
    24.8207  25.7039  26.2535  26.9052  27.1611  27.2638  28.0650  28.2465
    28.3445  29.0967  29.4552  29.4871  29.6404  29.8653  29.8947  30.0259
    30.2502  30.9865  32.0993  32.4084  32.5471  32.6275  32.6356  33.0401
    33.6687  34.1123  34.4126  34.6337  35.0042  35.0911  35.2859  35.3123
    35.3363  36.0951  36.2012  36.5574  36.8174  37.1930  37.5377  37.8353
    38.4060  38.8001  38.9099

          k = 0.0000 0.0000 0.1161 (  5432 PWs)   bands (ev):

   -91.7649 -91.7277 -91.7016 -91.6723 -50.5884 -50.5808 -50.5784 -50.5776
   -50.5767 -50.5745 -50.5714 -50.5688 -50.5502 -50.5484 -50.5460 -50.5409
    -6.1546  -5.7404  -5.1082  -4.9217  -4.7784  -4.5272  -4.4977  -4.4607
     6.3324   6.3827   6.4059   6.5037   6.5369   6.5377   6.5825   6.8205
     6.8360   6.8519   6.8757   6.9808   6.9955   7.0689   7.1411   7.1560
     7.1714   7.2225   7.2235   7.2529   9.7908  10.1624  10.2295  10.8333
    10.9046  11.3551  11.3935  11.6223  11.8354  12.3792  12.7804  12.9471
    13.0729  13.0850  13.3288  13.4315  13.6428  13.8165  13.9011  13.9166
    14.0243  14.3870  15.2782  15.3299  20.2206  20.7030  21.1244  21.8181
    24.9963  25.8380  25.9866  27.0477  27.1902  27.2361  28.1169  28.1485
    28.2479  28.4375  28.7603  29.1232  29.6214  29.8028  29.9259  30.0479
    30.8731  30.8835  31.6941  31.9049  32.0954  32.4716  33.5402  33.6374
    33.6441  33.7473  34.3846  34.6726  35.0231  35.4439  35.8277  35.9845
    36.1891  36.4458  36.6723  36.7326  36.7884  36.9178  37.1646  37.5323
    38.3983  38.4763  39.0387

          k = 0.0000 0.0000-0.2322 (  5418 PWs)   bands (ev):

   -91.7312 -91.7312 -91.6837 -91.6837 -50.5835 -50.5835 -50.5779 -50.5779
   -50.5717 -50.5717 -50.5709 -50.5709 -50.5482 -50.5480 -50.5403 -50.5401
    -5.9862  -5.9862  -4.9435  -4.9435  -4.6864  -4.6864  -4.4799  -4.4799
     6.4134   6.4134   6.4704   6.4704   6.5344   6.5344   6.6472   6.6472
     6.8495   6.8495   6.9241   6.9241   7.0170   7.0170   7.1648   7.1649
     7.1939   7.1939   7.2523   7.2523  10.0041  10.0041  10.7215  10.7215
    10.8061  10.8061  11.3254  11.3254  12.1007  12.1007  13.1324  13.1324
    13.2599  13.2599  13.3226  13.3226  13.6585  13.6585  13.8924  13.8924
    14.1056  14.1056  15.3033  15.3033  20.7658  20.7658  21.4206  21.4207
    25.4542  25.4542  26.4379  26.4379  27.2260  27.2260  27.7816  27.7816
    28.3367  28.3367  29.1952  29.1952  29.2464  29.2464  29.8344  29.8344
    31.0919  31.0919  31.4861  31.4861  32.1727  32.1727  33.4069  33.4069
    33.9672  33.9672  34.7396  34.7396  35.7380  35.7381  36.2868  36.2868
    36.5181  36.5182  36.6654  36.6654  37.0326  37.0327  37.8149  37.8151
    38.4721  38.5069  38.5164

          k = 0.0000 0.2258 0.0000 (  5419 PWs)   bands (ev):

   -91.7452 -91.7226 -91.7118 -91.6595 -50.5863 -50.5844 -50.5785 -50.5759
   -50.5758 -50.5746 -50.5727 -50.5693 -50.5475 -50.5430 -50.5421 -50.5355
    -5.9763  -5.4573  -5.3299  -5.1175  -4.8719  -4.7305  -4.3693  -4.3545
     6.2317   6.2652   6.3149   6.4160   6.4407   6.4819   6.6090   6.6242
     6.8475   6.8633   6.8994   6.9714   6.9742   7.0261   7.0484   7.1870
     7.1893   7.1967   7.1979   7.2463   9.8714  10.1744  10.6263  11.2146
    11.5322  11.7952  11.8626  11.8945  12.3113  12.3309  12.3551  12.4954
    12.9005  12.9923  13.3163  13.5110  13.6485  13.6708  13.7661  14.0962
    14.1217  14.2691  14.5405  14.6388  20.7110  21.5493  21.5584  22.4250
    25.2801  25.3838  26.1076  26.3504  26.3972  26.6558  27.1665  27.2846
    27.7126  28.8028  29.0501  29.4042  29.4278  29.5252  30.1596  30.4539
    30.6338  31.0617  31.5922  31.7490  32.1327  32.2376  33.0879  33.2160
    33.7258  33.8236  33.8820  34.4260  34.8644  35.0170  35.8312  35.8633
    36.0198  36.3027  36.5538  36.7593  37.0325  37.5620  37.7826  37.7954
    38.0683  38.7085  39.4037

          k = 0.0000 0.2258 0.1161 (  5395 PWs)   bands (ev):

   -91.7151 -91.7130 -91.6873 -91.6572 -50.5798 -50.5784 -50.5776 -50.5758
   -50.5751 -50.5706 -50.5675 -50.5673 -50.5457 -50.5420 -50.5371 -50.5358
    -5.9234  -5.5760  -5.3175  -5.1180  -4.8175  -4.6460  -4.4256  -4.3856
     6.2519   6.2767   6.4031   6.4159   6.4334   6.5531   6.5871   6.6025
     6.7970   6.8525   6.8730   6.9510   6.9606   7.0267   7.0662   7.1176
     7.1962   7.2049   7.2494   7.2643  10.0001  10.2849  10.7767  11.0432
    11.2488  11.5751  11.7689  11.8956  11.9994  12.2402  12.4538  12.6220
    12.9689  13.1093  13.2952  13.4850  13.4912  13.6456  14.0202  14.1830
    14.2600  14.3808  14.5439  14.6330  20.9126  21.4249  21.8622  22.4172
    25.1673  25.5045  25.7271  26.3122  26.3210  26.6441  27.1556  27.5882
    27.6726  28.4493  28.6298  29.0630  29.1513  30.0524  30.0524  30.6348
    30.6930  31.0739  31.4312  32.1898  32.3218  32.4127  33.0412  33.1521
    33.4605  34.0681  34.0910  34.2263  34.5307  35.0733  35.4924  35.8519
    36.1467  36.3614  36.3879  37.1732  37.2944  37.3226  37.6787  37.9511
    38.5866  38.8893  39.2443

          k = 0.0000 0.2258-0.2322 (  5422 PWs)   bands (ev):

   -91.7235 -91.7234 -91.7020 -91.7020 -50.5812 -50.5811 -50.5782 -50.5782
   -50.5770 -50.5770 -50.5754 -50.5754 -50.5448 -50.5446 -50.5385 -50.5382
    -5.7766  -5.7766  -5.2269  -5.2269  -4.6386  -4.6386  -4.4657  -4.4657
     6.2822   6.2822   6.4126   6.4126   6.5700   6.5700   6.6327   6.6327
     6.7049   6.7049   6.9064   6.9064   6.9812   6.9813   7.0925   7.0925
     7.2083   7.2083   7.2738   7.2738  10.3221  10.3221  10.8425  10.8425
    11.1885  11.1885  11.6873  11.6873  12.2732  12.2732  12.2932  12.2932
    13.1788  13.1788  13.4624  13.4624  13.4802  13.4802  14.2478  14.2478
    14.3453  14.3453  14.6252  14.6252  21.2683  21.2683  22.2263  22.2264
    25.1613  25.1613  25.8462  25.8462  26.6281  26.6282  27.3584  27.3585
    27.9818  27.9818  28.5493  28.5494  29.7168  29.7168  30.1299  30.1299
    30.8476  30.8476  31.9247  31.9247  32.6692  32.6693  33.0840  33.0840
    33.6661  33.6661  34.6065  34.6065  34.7585  34.7585  35.3489  35.3489
    36.3187  36.3187  36.5052  36.5053  37.0965  37.0965  38.1501  38.1502
    39.0319  39.0321  39.7806

          k =-0.4329 0.0000 0.0000 (  5472 PWs)   bands (ev):

   -91.7629 -91.7629 -91.7369 -91.7369 -50.5881 -50.5881 -50.5838 -50.5838
   -50.5819 -50.5819 -50.5782 -50.5782 -50.5512 -50.5512 -50.5467 -50.5467
    -5.5994  -5.5994  -5.0967  -5.0967  -4.9334  -4.9334  -4.4833  -4.4833
     6.5180   6.5180   6.6655   6.6655   6.7884   6.7884   6.8528   6.8528
     6.9417   6.9417   6.9658   6.9658   6.9690   6.9690   7.0709   7.0709
     7.1950   7.1950   7.3055   7.3055   9.6397   9.6397  10.0912  10.0912
    10.3746  10.3746  11.2095  11.2095  11.5052  11.5052  12.4807  12.4807
    13.2436  13.2436  13.5550  13.5550  13.8592  13.8592  14.2713  14.2713
    14.6132  14.6132  15.3300  15.3300  20.0984  20.0984  22.1455  22.1455
    26.6201  26.6201  28.0431  28.0431  28.0602  28.0602  29.0263  29.0263
    29.7280  29.7280  30.0043  30.0043  30.1576  30.1576  30.5607  30.5607
    30.7470  30.7470  31.8653  31.8653  32.0157  32.0157  32.4697  32.4697
    33.0681  33.0681  33.7091  33.7091  33.7119  33.7119  34.2159  34.2159
    34.2931  34.2931  35.5829  35.5831  36.5627  36.5628  36.8336  36.8337
    37.8143  37.8185  37.8194

          k =-0.4329 0.0000 0.1161 (  5422 PWs)   bands (ev):

   -91.7308 -91.7308 -91.6988 -91.6988 -50.5834 -50.5834 -50.5803 -50.5803
   -50.5767 -50.5767 -50.5715 -50.5715 -50.5448 -50.5448 -50.5396 -50.5396
    -5.5897  -5.5897  -5.1102  -5.1102  -4.9276  -4.9276  -4.4854  -4.4854
     6.5635   6.5635   6.6887   6.6887   6.7553   6.7553   6.8481   6.8481
     6.9338   6.9338   6.9650   6.9650   7.0134   7.0134   7.1069   7.1069
     7.1607   7.1607   7.2785   7.2785   9.5960   9.5960  10.0125  10.0125
    10.6541  10.6541  10.8824  10.8824  11.8311  11.8311  12.4191  12.4191
    12.6679  12.6679  13.6404  13.6404  14.0834  14.0834  14.2362  14.2362
    14.7594  14.7594  15.3542  15.3542  20.2797  20.2797  22.1825  22.1825
    26.7404  26.7404  27.7024  27.7024  27.9169  27.9169  29.0407  29.0407
    29.5653  29.5653  29.6647  29.6647  30.0456  30.0456  30.3692  30.3692
    31.0703  31.0703  31.7526  31.7526  31.8370  31.8370  32.1176  32.1176
    33.5299  33.5299  33.8229  33.8229  34.2704  34.2704  34.4957  34.4957
    34.8498  34.8498  35.7903  35.7905  36.3429  36.3431  36.7336  36.7338
    37.1829  37.1832  37.8780

          k =-0.4329 0.0000-0.2322 (  5436 PWs)   bands (ev):

   -91.7372 -91.7372 -91.7110 -91.7110 -50.5857 -50.5857 -50.5813 -50.5813
   -50.5782 -50.5782 -50.5718 -50.5718 -50.5461 -50.5461 -50.5420 -50.5420
    -5.5799  -5.5799  -5.1249  -5.1249  -4.9225  -4.9225  -4.4884  -4.4884
     6.6451   6.6451   6.6867   6.6867   6.7252   6.7252   6.8116   6.8116
     6.9531   6.9531   6.9676   6.9676   7.0682   7.0682   7.0857   7.0857
     7.1894   7.1894   7.2220   7.2220   9.5437   9.5437   9.9923   9.9923
    10.6627  10.6627  10.9937  10.9937  11.9562  11.9562  12.2206  12.2206
    12.4317  12.4317  13.5546  13.5546  14.2273  14.2273  14.2383  14.2383
    14.8880  14.8880  15.3760  15.3760  20.4859  20.4859  22.1841  22.1841
    27.0816  27.0816  27.3638  27.3638  27.4134  27.4134  29.1452  29.1452
    29.1810  29.1810  29.9605  29.9605  30.1092  30.1092  30.3855  30.3855
    30.6246  30.6246  31.3685  31.3685  31.8001  31.8001  32.1592  32.1592
    33.7029  33.7029  34.2776  34.2776  34.4445  34.4445  34.6191  34.6191
    35.6288  35.6288  35.7209  35.7210  36.4157  36.4158  36.8541  36.8543
    37.3408  37.3410  37.5358

          k =-0.4329 0.2258 0.0000 (  5404 PWs)   bands (ev):

   -91.7118 -91.7118 -91.6906 -91.6906 -50.5819 -50.5819 -50.5781 -50.5781
   -50.5737 -50.5737 -50.5704 -50.5704 -50.5408 -50.5408 -50.5391 -50.5391
    -5.4166  -5.4166  -5.1439  -5.1439  -4.8822  -4.8822  -4.6812  -4.6812
     6.5433   6.5433   6.6296   6.6296   6.6751   6.6751   6.7269   6.7269
     6.9322   6.9322   6.9433   6.9433   6.9968   6.9968   7.0466   7.0466
     7.0956   7.0956   7.2164   7.2164   9.9224   9.9224  10.0052  10.0052
    10.5430  10.5430  11.4512  11.4512  12.0558  12.0558  12.5442  12.5442
    13.0616  13.0616  13.3119  13.3119  14.1384  14.1384  14.3648  14.3648
    14.4728  14.4728  14.7470  14.7470  20.9973  20.9973  22.2673  22.2673
    26.6348  26.6348  27.1201  27.1201  27.3052  27.3052  27.9851  27.9851
    29.3083  29.3083  29.4729  29.4729  29.8554  29.8554  30.5940  30.5940
    31.4019  31.4019  31.5373  31.5373  32.2778  32.2778  32.5620  32.5620
    33.2491  33.2491  33.5869  33.5869  33.7409  33.7409  35.0108  35.0108
    35.3784  35.3784  35.7440  35.7440  36.0880  36.0880  36.8992  36.8993
    38.3176  38.3185  38.6023

          k =-0.4329 0.2258 0.1161 (  5410 PWs)   bands (ev):

   -91.7139 -91.7139 -91.6984 -91.6984 -50.5820 -50.5820 -50.5787 -50.5787
   -50.5747 -50.5747 -50.5704 -50.5704 -50.5424 -50.5424 -50.5401 -50.5401
    -5.4076  -5.4076  -5.1462  -5.1462  -4.8850  -4.8850  -4.6877  -4.6877
     6.5704   6.5704   6.6469   6.6469   6.6894   6.6894   6.7420   6.7420
     6.8921   6.8921   6.9417   6.9417   7.0156   7.0156   7.0637   7.0637
     7.0892   7.0892   7.1983   7.1983   9.9414   9.9414  10.0256  10.0256
    10.6968  10.6968  11.0347  11.0347  11.9551  11.9551  12.4837  12.4837
    13.1984  13.1984  13.5454  13.5454  14.0826  14.0826  14.3213  14.3213
    14.5117  14.5117  14.7880  14.7880  21.1296  21.1296  22.3361  22.3361
    26.4911  26.4911  26.9640  26.9640  27.4229  27.4229  28.0832  28.0832
    28.8385  28.8385  29.1587  29.1587  29.7239  29.7239  30.6630  30.6630
    31.3138  31.3138  31.7546  31.7546  32.0629  32.0629  32.8388  32.8388
    33.5423  33.5423  33.7737  33.7737  34.2672  34.2672  34.7678  34.7678
    35.4067  35.4067  35.7403  35.7404  36.1389  36.1389  36.8982  36.8983
    37.9378  37.9380  38.6609

          k =-0.4329 0.2258-0.2322 (  5432 PWs)   bands (ev):

   -91.7221 -91.7221 -91.7212 -91.7212 -50.5843 -50.5843 -50.5818 -50.5818
   -50.5767 -50.5767 -50.5751 -50.5751 -50.5450 -50.5450 -50.5402 -50.5402
    -5.3984  -5.3984  -5.1492  -5.1492  -4.8874  -4.8874  -4.6947  -4.6947
     6.6074   6.6074   6.6437   6.6437   6.7249   6.7249   6.7524   6.7524
     6.8544   6.8544   6.9277   6.9277   7.0401   7.0401   7.0719   7.0719
     7.1286   7.1286   7.1417   7.1417   9.8940   9.8940  10.2881  10.2881
    10.4176  10.4176  11.3090  11.3090  11.3252  11.3252  12.6044  12.6044
    13.3535  13.3535  13.6998  13.6998  14.0781  14.0781  14.1335  14.1335
    14.6883  14.6883  14.7564  14.7564  21.2785  21.2785  22.3996  22.3996
    26.3204  26.3204  26.7642  26.7642  27.7377  27.7377  28.0999  28.0999
    28.2398  28.2398  29.1686  29.1686  29.8451  29.8451  30.3118  30.3118
    31.0355  31.0355  31.8376  31.8376  32.0668  32.0668  33.4640  33.4640
    33.5182  33.5182  34.0539  34.0539  34.3855  34.3855  35.2659  35.2659
    35.3852  35.3852  35.6519  35.6520  35.9278  35.9278  36.5509  36.5510
    38.4190  38.4215  38.5619

     the Fermi energy is    33.1842 ev

!    total energy              =   -2252.51150198 Ry
     Harris-Foulkes estimate   =   -2252.51152110 Ry
     estimated scf accuracy    <       0.00002170 Ry

     The total energy is the sum of the following terms:

     one-electron contribution =    -404.09189874 Ry
     hartree contribution      =     360.13968239 Ry
     xc contribution           =    -216.60343654 Ry
     ewald contribution        =   -1991.49392992 Ry
     smearing contrib. (-TS)   =      -0.46191917 Ry

     convergence has been achieved in  11 iterations

     Forces acting on atoms (Ry/au):

     atom    1 type  1   force =     0.00000000   -0.05642374    0.00734763
     atom    2 type  1   force =     0.00000000    0.05642374   -0.00734763
     atom    3 type  1   force =     0.00000000   -0.05642374   -0.00734763
     atom    4 type  1   force =     0.00000000    0.05642374    0.00734763
     atom    5 type  1   force =     0.00000000    0.09305724   -0.13826408
     atom    6 type  1   force =     0.00000000   -0.09305724    0.13826408
     atom    7 type  1   force =     0.00000000    0.09305724    0.13826408
     atom    8 type  1   force =     0.00000000   -0.09305724   -0.13826408
     atom    9 type  2   force =     0.00000000   -0.07588263    0.01611974
     atom   10 type  2   force =     0.00000000    0.07588263   -0.01611974
     atom   11 type  2   force =     0.00000000   -0.07588263   -0.01611974
     atom   12 type  2   force =     0.00000000    0.07588263    0.01611974

     Total force =     0.384875     Total SCF correction =     0.000000


     entering subroutine stress ...

          total   stress  (Ry/bohr**3)                   (kbar)     P= 1669.70
   0.01232930   0.00000000   0.00000000       1813.70      0.00      0.00
   0.00000000   0.01046805   0.00000000          0.00   1539.90      0.00
   0.00000000   0.00000000   0.01125382          0.00      0.00   1655.49


     Writing output data file Prototype-La-oP12-Co2Si.save
 
     init_run     :      4.15s CPU     15.20s WALL (       2 calls)
     electrons    :   1144.14s CPU   1692.59s WALL (       5 calls)
     update_pot   :      1.90s CPU      1.95s WALL (       3 calls)
     forces       :      4.17s CPU      4.42s WALL (       5 calls)
     stress       :     11.56s CPU     68.63s WALL (       5 calls)

     Called by init_run:
     wfcinit      :      3.15s CPU      4.71s WALL (       2 calls)
     potinit      :      0.40s CPU      0.41s WALL (       2 calls)

     Called by electrons:
     c_bands      :   1119.52s CPU   1634.93s WALL (      49 calls)
     sum_band     :     23.90s CPU     30.95s WALL (      49 calls)
     v_of_rho     :      0.08s CPU      0.10s WALL (      54 calls)
     mix_rho      :      0.39s CPU      0.64s WALL (      49 calls)

     Called by c_bands:
     init_us_2    :      1.35s CPU      1.66s WALL (    1320 calls)
     ccgdiagg     :   1012.47s CPU   1326.99s WALL (     690 calls)
     wfcrot       :    108.84s CPU    309.22s WALL (     702 calls)

     Called by *cgdiagg:
     h_psi        :    818.55s CPU   1311.86s WALL (  468650 calls)
     cdiaghg      :      5.14s CPU      8.28s WALL (     702 calls)

     Called by h_psi:
     add_vuspsi   :     91.64s CPU    235.17s WALL (  468650 calls)

     General routines
     calbec       :    243.29s CPU    263.00s WALL (  936718 calls)
     fft          :      0.42s CPU      0.69s WALL (     239 calls)
     fftw         :    578.01s CPU    869.28s WALL ( 1164976 calls)
     davcio       :      0.74s CPU      3.00s WALL (    1908 calls)
 
     Parallel routines
     fft_scatter  :    392.77s CPU    503.98s WALL ( 1165215 calls)
 
     PWSCF        : 19m26.66s CPU    29m53.27s WALL

 
   This run was terminated on:   1:10:58  22Mar2018            

=------------------------------------------------------------------------------=
   JOB DONE.
=------------------------------------------------------------------------------=
