
     Program PWSCF v.5.0.2 starts on 22Mar2018 at 22:47:17 

     This program is part of the open-source Quantum ESPRESSO suite
     for quantum simulation of materials; please cite
         "P. Giannozzi et al., J. Phys.:Condens. Matter 21 395502 (2009);
          URL http://www.quantum-espresso.org", 
     in publications or presentations arising from this work. More details at
     http://www.quantum-espresso.org/quote.php

     Parallel version (MPI), running on     4 processors
     R & G space division:  proc/nbgrp/npool/nimage =       4

     Current dimensions of program PWSCF are:
     Max number of different atomic species (ntypx) = 10
     Max number of k-points (npk) =  40000
     Max angular momentum in pseudopotentials (lmaxx) =  3
     Waiting for input...
     Reading input from standard input

     Subspace diagonalization in iterative solution of the eigenvalue problem:
     a serial algorithm will be used

 
     Parallelization info
     --------------------
     sticks:   dense  smooth     PW     G-vecs:    dense   smooth      PW
     Min         233     233     69                 5311     5311     851
     Max         234     234     70                 5314     5314     854
     Sum         933     933    277                21247    21247    3407
 


     bravais-lattice index     =            0
     lattice parameter (alat)  =       8.5346  a.u.
     unit-cell volume          =     621.6493 (a.u.)^3
     number of atoms/cell      =            8
     number of atomic types    =            2
     number of electrons       =       178.00
     number of Kohn-Sham states=          107
     kinetic-energy cutoff     =      40.0000  Ry
     charge density cutoff     =     160.0000  Ry
     convergence threshold     =      1.0E-04
     mixing beta               =       0.7000
     number of iterations used =            8  plain     mixing
     Exchange-correlation      = SLA-PZ-NOGX-NOGC ( 1 1 0 0 0)
     EXX-fraction              =        0.00
     nstep                     =           50


     celldm(1)=   8.534573  celldm(2)=   0.000000  celldm(3)=   0.000000
     celldm(4)=   0.000000  celldm(5)=   0.000000  celldm(6)=   0.000000

     crystal axes: (cart. coord. in units of alat)
               a(1) = (   1.000000   0.000000   0.000000 )  
               a(2) = (   0.000000   1.000000   0.000000 )  
               a(3) = (   0.000000   0.000000   1.000000 )  

     reciprocal axes: (cart. coord. in units 2 pi/alat)
               b(1) = (  1.000000  0.000000  0.000000 )  
               b(2) = (  0.000000  1.000000  0.000000 )  
               b(3) = (  0.000000  0.000000  1.000000 )  


     PseudoPot. # 1 for Er read from file:
     /home/cwx6513/pp.La/Er.UPF
     MD5 check sum: e152ae21b84514339d8526f066caf99b
     Pseudo is Norm-conserving, Zval = 22.0
     Generated in analytical, separable form
     Using radial grid of 1267 points,  6 beta functions with: 
                l(1) =   0
                l(2) =   0
                l(3) =   1
                l(4) =   1
                l(5) =   2
                l(6) =   3

     PseudoPot. # 2 for Tm read from file:
     /home/cwx6513/pp.La/Tm.UPF
     MD5 check sum: 245516e0878b5372ceeb9443ded2c4e1
     Pseudo is Norm-conserving, Zval = 23.0
     Generated in analytical, separable form
     Using radial grid of 1269 points,  6 beta functions with: 
                l(1) =   0
                l(2) =   0
                l(3) =   1
                l(4) =   1
                l(5) =   2
                l(6) =   3

     atomic species   valence    mass     pseudopotential
        Cr            22.00    51.99610     Er( 1.00)
        Si            23.00    28.08550     Tm( 1.00)

     48 Sym. Ops., with inversion, found (24 have fractional translation)



   Cartesian axes

     site n.     atom                  positions (alat units)
         1           Cr  tau(   1) = (   0.0000000   0.5000000   0.2500000  )
         2           Cr  tau(   2) = (   0.0000000   0.5000000   0.7500000  )
         3           Cr  tau(   3) = (   0.5000000   0.7500000   0.0000000  )
         4           Cr  tau(   4) = (   0.5000000   0.2500000   0.0000000  )
         5           Cr  tau(   5) = (   0.7500000   0.0000000   0.5000000  )
         6           Cr  tau(   6) = (   0.2500000   0.0000000   0.5000000  )
         7           Si  tau(   7) = (   0.5000000   0.5000000   0.5000000  )
         8           Si  tau(   8) = (   0.0000000   0.0000000   0.0000000  )

     number of k points=    48  gaussian smearing, width (Ry)=  0.1000
                       cart. coord. in units 2pi/alat
        k(    1) = (   0.0000000   0.0000000   0.0000000), wk =   0.0095238
        k(    2) = (   0.0000000   0.0000000   0.1428571), wk =   0.0190476
        k(    3) = (   0.0000000   0.0000000   0.2857143), wk =   0.0190476
        k(    4) = (   0.0000000   0.0000000   0.4285714), wk =   0.0190476
        k(    5) = (   0.0000000   0.1666667   0.0000000), wk =   0.0190476
        k(    6) = (   0.0000000   0.1666667   0.1428571), wk =   0.0380952
        k(    7) = (   0.0000000   0.1666667   0.2857143), wk =   0.0380952
        k(    8) = (   0.0000000   0.1666667   0.4285714), wk =   0.0380952
        k(    9) = (   0.0000000   0.3333333   0.0000000), wk =   0.0190476
        k(   10) = (   0.0000000   0.3333333   0.1428571), wk =   0.0380952
        k(   11) = (   0.0000000   0.3333333   0.2857143), wk =   0.0380952
        k(   12) = (   0.0000000   0.3333333   0.4285714), wk =   0.0380952
        k(   13) = (   0.0000000  -0.5000000   0.0000000), wk =   0.0095238
        k(   14) = (   0.0000000  -0.5000000   0.1428571), wk =   0.0190476
        k(   15) = (   0.0000000  -0.5000000   0.2857143), wk =   0.0190476
        k(   16) = (   0.0000000  -0.5000000   0.4285714), wk =   0.0190476
        k(   17) = (   0.2000000   0.0000000   0.0000000), wk =   0.0190476
        k(   18) = (   0.2000000   0.0000000   0.1428571), wk =   0.0380952
        k(   19) = (   0.2000000   0.0000000   0.2857143), wk =   0.0380952
        k(   20) = (   0.2000000   0.0000000   0.4285714), wk =   0.0380952
        k(   21) = (   0.2000000   0.1666667   0.0000000), wk =   0.0380952
        k(   22) = (   0.2000000   0.1666667   0.1428571), wk =   0.0761905
        k(   23) = (   0.2000000   0.1666667   0.2857143), wk =   0.0761905
        k(   24) = (   0.2000000   0.1666667   0.4285714), wk =   0.0761905
        k(   25) = (   0.2000000   0.3333333   0.0000000), wk =   0.0380952
        k(   26) = (   0.2000000   0.3333333   0.1428571), wk =   0.0761905
        k(   27) = (   0.2000000   0.3333333   0.2857143), wk =   0.0761905
        k(   28) = (   0.2000000   0.3333333   0.4285714), wk =   0.0761905
        k(   29) = (   0.2000000  -0.5000000   0.0000000), wk =   0.0190476
        k(   30) = (   0.2000000  -0.5000000   0.1428571), wk =   0.0380952
        k(   31) = (   0.2000000  -0.5000000   0.2857143), wk =   0.0380952
        k(   32) = (   0.2000000  -0.5000000   0.4285714), wk =   0.0380952
        k(   33) = (   0.4000000   0.0000000   0.0000000), wk =   0.0190476
        k(   34) = (   0.4000000   0.0000000   0.1428571), wk =   0.0380952
        k(   35) = (   0.4000000   0.0000000   0.2857143), wk =   0.0380952
        k(   36) = (   0.4000000   0.0000000   0.4285714), wk =   0.0380952
        k(   37) = (   0.4000000   0.1666667   0.0000000), wk =   0.0380952
        k(   38) = (   0.4000000   0.1666667   0.1428571), wk =   0.0761905
        k(   39) = (   0.4000000   0.1666667   0.2857143), wk =   0.0761905
        k(   40) = (   0.4000000   0.1666667   0.4285714), wk =   0.0761905
        k(   41) = (   0.4000000   0.3333333   0.0000000), wk =   0.0380952
        k(   42) = (   0.4000000   0.3333333   0.1428571), wk =   0.0761905
        k(   43) = (   0.4000000   0.3333333   0.2857143), wk =   0.0761905
        k(   44) = (   0.4000000   0.3333333   0.4285714), wk =   0.0761905
        k(   45) = (   0.4000000  -0.5000000   0.0000000), wk =   0.0190476
        k(   46) = (   0.4000000  -0.5000000   0.1428571), wk =   0.0380952
        k(   47) = (   0.4000000  -0.5000000   0.2857143), wk =   0.0380952
        k(   48) = (   0.4000000  -0.5000000   0.4285714), wk =   0.0380952

     Dense  grid:    21247 G-vectors     FFT dimensions: (  36,  36,  36)

     Largest allocated arrays     est. size (Mb)     dimensions
        Kohn-Sham Wavefunctions         1.12 Mb     (    683,  107)
        NL pseudopotentials             1.67 Mb     (    683,  160)
        Each V/rho on FFT grid          0.18 Mb     (  11664)
        Each G-vector array             0.04 Mb     (   5314)
        G-vector shells                 0.04 Mb     (   5314)
     Largest temporary arrays     est. size (Mb)     dimensions
        Each subspace H/S matrix        0.17 Mb     ( 107, 107)
        Each <psi_i|beta_j> matrix      0.26 Mb     (    160,  107)
        Arrays for rho mixing           1.42 Mb     (  11664,   8)

     Initial potential from superposition of free atoms

     Starting from uniform charge
     Starting wfc are    0 randomized atomic wfcs

     total cpu time spent up to now is        4.3 secs

     Self-consistent Calculation

     iteration #  1     ecut=    40.00 Ry     beta=0.70
     CG style diagonalization
     ethr =  1.00E-02,  avg # of iterations = 16.4

     total cpu time spent up to now is       80.7 secs

     total energy              =   -2329.68426994 Ry
     Harris-Foulkes estimate   =   -3129.98991866 Ry
     estimated scf accuracy    <    1004.02030532 Ry

     iteration #  2     ecut=    40.00 Ry     beta=0.70
     CG style diagonalization
     c_bands:  1 eigenvalues not converged
     c_bands:  1 eigenvalues not converged
     ethr =  1.00E-02,  avg # of iterations =  8.6

     total cpu time spent up to now is      121.9 secs

     total energy              =   -2533.91848350 Ry
     Harris-Foulkes estimate   =   -2905.53198295 Ry
     estimated scf accuracy    <     603.97386831 Ry

     iteration #  3     ecut=    40.00 Ry     beta=0.70
     CG style diagonalization
     c_bands:  1 eigenvalues not converged
     c_bands:  1 eigenvalues not converged
     ethr =  1.00E-02,  avg # of iterations =  9.7

     total cpu time spent up to now is      171.5 secs

     total energy              =   -2683.81684059 Ry
     Harris-Foulkes estimate   =   -2710.48594489 Ry
     estimated scf accuracy    <      46.77040759 Ry

     iteration #  4     ecut=    40.00 Ry     beta=0.70
     CG style diagonalization
     ethr =  1.00E-02,  avg # of iterations =  4.2

     total cpu time spent up to now is      192.8 secs

     total energy              =   -2697.01747237 Ry
     Harris-Foulkes estimate   =   -2698.18193398 Ry
     estimated scf accuracy    <       1.66901921 Ry

     iteration #  5     ecut=    40.00 Ry     beta=0.70
     CG style diagonalization
     ethr =  9.38E-04,  avg # of iterations =  4.1

     total cpu time spent up to now is      214.0 secs

     total energy              =   -2697.66203766 Ry
     Harris-Foulkes estimate   =   -2697.80568636 Ry
     estimated scf accuracy    <       0.25432964 Ry

     iteration #  6     ecut=    40.00 Ry     beta=0.70
     CG style diagonalization
     c_bands:  1 eigenvalues not converged
     c_bands:  1 eigenvalues not converged
     c_bands:  1 eigenvalues not converged
     c_bands:  1 eigenvalues not converged
     c_bands:  1 eigenvalues not converged
     c_bands:  1 eigenvalues not converged
     ethr =  1.43E-04,  avg # of iterations =  3.9

     total cpu time spent up to now is      234.6 secs

     total energy              =   -2697.70403320 Ry
     Harris-Foulkes estimate   =   -2697.70821122 Ry
     estimated scf accuracy    <       0.00745984 Ry

     iteration #  7     ecut=    40.00 Ry     beta=0.70
     CG style diagonalization
     c_bands:  1 eigenvalues not converged
     c_bands:  1 eigenvalues not converged
     c_bands:  1 eigenvalues not converged
     c_bands:  1 eigenvalues not converged
     c_bands:  1 eigenvalues not converged
     c_bands:  1 eigenvalues not converged
     c_bands:  1 eigenvalues not converged
     c_bands:  1 eigenvalues not converged
     c_bands:  1 eigenvalues not converged
     c_bands:  1 eigenvalues not converged
     c_bands:  1 eigenvalues not converged
     c_bands:  1 eigenvalues not converged
     c_bands:  1 eigenvalues not converged
     c_bands:  1 eigenvalues not converged
     c_bands:  2 eigenvalues not converged
     c_bands:  1 eigenvalues not converged
     c_bands:  1 eigenvalues not converged
     c_bands:  2 eigenvalues not converged
     ethr =  4.19E-06,  avg # of iterations =  4.6

     total cpu time spent up to now is      258.3 secs

     total energy              =   -2697.70710527 Ry
     Harris-Foulkes estimate   =   -2697.70718925 Ry
     estimated scf accuracy    <       0.00014235 Ry

     iteration #  8     ecut=    40.00 Ry     beta=0.70
     CG style diagonalization
     c_bands:  1 eigenvalues not converged
     c_bands:  1 eigenvalues not converged
     c_bands:  1 eigenvalues not converged
     ethr =  8.00E-08,  avg # of iterations =  4.3

     total cpu time spent up to now is      279.2 secs

     End of self-consistent calculation

          k = 0.0000 0.0000 0.0000 (  2601 PWs)   bands (ev):

   -60.4938 -60.4360 -51.2179 -51.2179 -51.1500 -50.7651 -50.7651 -50.7651
   -19.5473 -19.5473 -19.5473 -19.5087 -19.5087 -19.5087 -15.1008 -15.1008
   -14.9407 -13.4656 -13.4656 -13.4656 -13.0319 -13.0319 -13.0319 -12.9858
   -12.9858 -12.9858 -12.8680 -12.8680 -12.8680 -12.4251 -12.4251 -12.4251
    26.1072  26.1072  27.2595  27.5971  27.5971  27.5971  27.7273  27.7273
    28.2455  28.2455  28.2455  28.2732  28.2732  28.2732  28.6016  28.6016
    28.9757  29.6162  29.9737  29.9737  29.9737  30.4914  32.6603  32.6603
    32.6603  33.1672  33.1672  33.6303  33.6303  33.6303  34.8586  34.8586
    34.8586  35.0391  35.0391  35.6283  35.6283  35.6283  35.9363  35.9363
    35.9363  42.3653  42.3653  42.3653  44.0489  44.0489  44.2300  47.7597
    51.0584  51.0584  51.0584  51.1256  51.1256  51.1256  51.3277  51.3277
    52.5617  52.5617  52.5617  52.8451  52.8451  52.8451  53.8639  53.8639
    53.8639  55.4761  56.1472  56.1472  56.1472  59.7151  60.3538  60.6685
    60.6685  60.6687  61.0358

          k = 0.0000 0.0000 0.1429 (  2657 PWs)   bands (ev):

   -60.5371 -60.4996 -51.2297 -51.1936 -51.1687 -50.8706 -50.8445 -50.8445
   -19.5587 -19.5587 -19.5505 -19.5505 -19.5495 -19.5454 -15.1318 -15.0929
   -14.9174 -13.4673 -13.4673 -13.4517 -13.0774 -13.0774 -13.0364 -13.0254
   -12.9958 -12.9958 -12.9204 -12.9204 -12.9167 -12.5679 -12.4407 -12.4407
    26.1126  26.2877  27.3149  27.3410  27.4920  27.4920  27.6031  27.6306
    28.1590  28.1616  28.1616  28.3259  28.4017  28.4017  28.7339  28.7945
    29.1673  29.8831  30.1186  30.1328  30.1328  30.6905  32.5647  32.5647
    32.6466  32.8888  33.1025  33.7014  33.7014  34.0846  34.4910  34.5708
    34.5708  34.8614  34.8619  35.6894  35.6894  35.7664  36.0111  36.0111
    36.0135  40.1112  42.4969  42.4969  43.9325  44.0779  46.2995  47.7205
    49.0310  49.6608  50.0008  50.0008  51.2542  51.2542  52.6928  52.7690
    52.9213  52.9893  52.9893  53.1917  53.2300  53.2300  53.8510  53.8510
    53.9561  55.5101  56.4094  56.4094  56.7539  59.2882  59.7496  60.0447
    60.6802  60.6803  60.9167

          k = 0.0000 0.0000 0.2857 (  2677 PWs)   bands (ev):

   -60.5477 -60.5272 -51.2346 -51.2156 -51.1584 -50.9195 -50.8587 -50.8587
   -19.5677 -19.5677 -19.5635 -19.5568 -19.5568 -19.5502 -15.1166 -15.0676
   -14.6181 -13.4575 -13.4575 -13.4061 -13.1384 -13.1035 -13.1035 -13.0113
   -13.0009 -12.9783 -12.9783 -12.9437 -12.9437 -12.9392 -12.4527 -12.4527
    26.1201  26.6224  27.0082  27.0145  27.2684  27.2684  27.6365  27.8817
    27.9845  28.0385  28.0385  28.3016  28.7122  28.7122  28.8279  29.2282
    29.2866  30.3713  30.4966  30.4966  31.1842  31.3598  32.4210  32.4210
    32.5641  32.6991  32.9493  33.4952  33.5285  33.5285  34.1288  34.1288
    34.4821  34.5194  34.5632  35.4839  35.4839  35.9706  36.1231  36.5830
    36.5830  37.2383  42.7730  42.7730  43.6180  43.8433  47.4188  47.5023
    48.5332  48.5332  48.9537  49.3890  51.4647  51.4647  53.1250  53.2663
    53.2663  53.4918  53.4918  53.5329  53.6907  54.0518  54.2123  54.6271
    54.6271  54.8764  57.0783  57.0784  57.7128  58.3565  58.7994  59.2435
    60.3694  60.3695  61.1187

          k = 0.0000 0.0000 0.4286 (  2658 PWs)   bands (ev):

   -60.5204 -60.5182 -51.2181 -51.1962 -51.0682 -50.9848 -50.8473 -50.8473
   -19.5630 -19.5630 -19.5516 -19.5516 -19.5368 -19.5311 -15.0962 -15.0764
   -14.1114 -13.5312 -13.4536 -13.4536 -13.3070 -13.2226 -13.1034 -13.1034
   -12.9845 -12.9599 -12.9599 -12.9568 -12.9301 -12.9301 -12.4472 -12.4472
    26.2196  26.5249  26.8756  26.9522  27.0979  27.0979  27.7062  27.8212
    27.9685  27.9685  28.1207  28.2339  28.8339  28.9688  28.9964  28.9964
    30.4610  30.8882  30.8882  31.7828  31.9430  31.9460  32.2920  32.3260
    32.3260  32.4629  32.6400  32.8407  32.8407  33.0989  34.2103  34.2103
    34.2542  34.2947  34.3323  34.6244  35.2663  35.2663  36.1110  36.1624
    37.0868  37.0868  43.0141  43.0141  43.3972  43.5340  46.9506  47.0012
    47.5277  47.5277  50.3970  50.8224  51.4588  51.4588  53.2085  53.3368
    53.4162  53.4162  53.7585  53.8544  53.8544  54.2561  54.4051  54.5167
    55.5713  55.5713  57.5571  57.5572  57.7175  58.0047  58.8838  59.3349
    59.8273  59.8274  61.0759

          k = 0.0000 0.1667 0.0000 (  2653 PWs)   bands (ev):

   -60.5306 -60.4995 -51.2186 -51.1893 -51.1600 -50.8773 -50.8453 -50.8453
   -19.5570 -19.5570 -19.5503 -19.5503 -19.5441 -19.5436 -15.1293 -15.0820
   -14.8876 -13.4613 -13.4613 -13.4348 -13.0821 -13.0821 -13.0466 -13.0234
   -12.9888 -12.9888 -12.9229 -12.9229 -12.9193 -12.6122 -12.4385 -12.4385
    26.1142  26.3426  27.2401  27.3289  27.4595  27.4595  27.6068  27.6378
    28.1328  28.1398  28.1398  28.3264  28.4448  28.4448  28.7877  28.8143
    29.2213  29.8796  30.1843  30.1843  30.2950  30.7574  32.5399  32.5399
    32.6401  32.8446  33.0829  33.7135  33.7135  34.1782  34.3633  34.4781
    34.4781  34.8077  34.8133  35.6704  35.6704  35.8020  36.0341  36.0813
    36.0813  39.6329  42.5389  42.5389  43.8918  44.0517  46.7470  47.7132
    48.7324  49.4976  49.7502  49.7502  51.3011  51.3011  52.7453  52.9666
    53.0339  53.0339  53.1020  53.3242  53.3254  53.3254  53.9197  53.9197
    53.9956  55.5008  56.5008  56.5009  56.9234  59.1526  59.5981  59.9046
    60.6749  60.6752  60.8961

          k = 0.0000 0.1667 0.1429 (  2662 PWs)   bands (ev):

   -60.5454 -60.5029 -51.2124 -51.1899 -51.1833 -50.8741 -50.8711 -50.8495
   -19.5664 -19.5626 -19.5596 -19.5516 -19.5483 -19.5371 -15.1108 -15.0066
   -14.8679 -13.4541 -13.4511 -13.4339 -13.1166 -13.0990 -13.0313 -13.0238
   -13.0091 -12.9695 -12.9480 -12.9345 -12.9029 -12.6369 -12.5813 -12.4421
    26.2106  26.4303  27.2000  27.2967  27.3813  27.4356  27.5362  27.5485
    27.9937  28.0315  28.1190  28.2548  28.4455  28.5680  28.8403  29.2679
    29.4937  30.0151  30.1236  30.3442  30.5232  30.9272  32.4242  32.4772
    32.6283  32.8670  32.9876  33.7797  33.9116  34.1555  34.2125  34.2293
    34.4059  34.7717  34.8071  35.5790  35.6897  35.6949  35.8490  35.8731
    36.4008  39.7581  40.3211  42.7556  43.9166  45.3874  46.6643  47.7404
    48.4032  48.5853  49.2900  50.5440  50.9223  51.1737  52.7787  52.8040
    53.0773  53.1343  53.4801  53.6148  53.7008  53.8237  53.9818  54.0295
    54.6590  55.9601  56.4623  56.6429  57.3752  58.7417  59.4555  59.8755
    60.0599  60.2864  61.2084

          k = 0.0000 0.1667 0.2857 (  2666 PWs)   bands (ev):

   -60.5355 -60.5211 -51.2170 -51.1941 -51.1363 -50.9230 -50.8794 -50.8534
   -19.5682 -19.5636 -19.5578 -19.5556 -19.5451 -19.5373 -15.0993 -14.9323
   -14.6171 -13.4401 -13.4355 -13.3974 -13.1682 -13.1173 -13.0744 -13.0211
   -13.0055 -12.9609 -12.9593 -12.9519 -12.9508 -12.9072 -12.6371 -12.4455
    26.2450  26.7042  26.9770  27.0744  27.2178  27.2330  27.5341  27.6719
    27.8522  27.9269  28.0234  28.3719  28.5826  28.8822  29.2450  29.3443
    29.8571  30.4214  30.5131  30.6999  31.3590  31.4606  32.2548  32.3808
    32.5673  32.6277  32.9040  33.5041  33.6298  33.6840  33.8551  34.2036
    34.4750  34.5339  34.7799  35.2370  35.4826  35.5779  35.9011  36.0813
    36.8130  37.5206  40.1914  43.2295  43.7280  43.9959  47.1627  47.9401
    48.1722  48.6080  48.9841  50.4674  51.0666  51.3094  52.4933  52.8749
    53.2771  53.4877  53.7006  53.8718  54.3496  54.3552  54.7073  54.8252
    55.5152  55.7607  56.6341  57.3147  57.9680  58.0717  59.0512  59.1513
    59.6716  60.2524  61.2868

          k = 0.0000 0.1667 0.4286 (  2658 PWs)   bands (ev):

   -60.5254 -60.5147 -51.1982 -51.1890 -51.0664 -50.9814 -50.8709 -50.8624
   -19.5645 -19.5637 -19.5565 -19.5534 -19.5354 -19.5245 -15.0955 -14.9279
   -14.1094 -13.5388 -13.4282 -13.4141 -13.3129 -13.2228 -13.1197 -13.0834
   -13.0345 -12.9854 -12.9600 -12.9476 -12.9353 -12.9189 -12.6385 -12.4363
    26.3047  26.5469  26.9684  27.0269  27.0410  27.1385  27.5764  27.5901
    27.8278  27.9438  27.9777  28.4238  28.7127  29.0934  29.1843  29.8547
    30.3796  31.0681  31.0845  31.5837  31.8904  31.9249  32.2392  32.3107
    32.3518  32.3755  32.7522  32.7677  33.0792  33.4487  33.8759  34.0942
    34.1566  34.3150  34.5874  34.8211  35.2746  35.5023  35.6564  35.9644
    36.4804  37.1563  40.9444  42.3247  43.5431  43.6501  46.6846  47.2327
    48.3888  48.9890  49.3771  50.8634  51.4972  51.7530  52.2750  52.8347
    53.2853  53.7022  53.8349  53.9598  54.5307  54.5968  54.9588  55.5430
    55.6611  56.1318  57.2210  57.5988  57.6436  58.2894  58.6265  59.2586
    59.5730  60.7150  61.0117

          k = 0.0000 0.3333 0.0000 (  2677 PWs)   bands (ev):

   -60.5476 -60.5266 -51.2357 -51.2302 -51.1192 -50.9660 -50.8467 -50.8467
   -19.5694 -19.5694 -19.5613 -19.5613 -19.5502 -19.5445 -15.1103 -15.0631
   -14.4856 -13.4590 -13.4590 -13.3821 -13.2045 -13.1171 -13.1073 -13.1073
   -13.0027 -12.9737 -12.9737 -12.9426 -12.9426 -12.9381 -12.4617 -12.4617
    26.1350  26.7066  26.8614  26.9746  27.1972  27.1972  27.6549  27.9255
    27.9818  28.0078  28.0078  28.2830  28.8238  28.8238  28.8245  29.1416
    29.6143  30.6357  30.6357  30.8107  31.3816  31.7996  32.3800  32.3800
    32.5010  32.6694  32.8108  33.1593  33.2945  33.2945  34.1339  34.1339
    34.4194  34.4725  34.4841  35.4003  35.4003  36.0264  36.1458  36.3065
    36.7874  36.7874  42.8669  42.8669  43.5145  43.7392  47.2297  47.2489
    48.1163  48.1163  49.6365  49.7104  51.4786  51.4786  53.3229  53.3711
    53.3711  53.5635  53.5635  53.5825  53.7906  54.2637  54.2748  54.4704
    54.9793  54.9793  57.3157  57.3158  58.0390  58.0544  58.5361  59.1470
    60.1825  60.1826  61.2619

          k = 0.0000 0.3333 0.1429 (  2660 PWs)   bands (ev):

   -60.5264 -60.5182 -51.2035 -51.1882 -51.1143 -50.9397 -50.8738 -50.8562
   -19.5686 -19.5606 -19.5562 -19.5506 -19.5426 -19.5306 -15.0990 -14.9751
   -14.4653 -13.4385 -13.4348 -13.3660 -13.1949 -13.1468 -13.1150 -13.0618
   -13.0183 -12.9787 -12.9640 -12.9482 -12.9411 -12.9138 -12.5849 -12.4381
    26.2286  26.7316  26.9015  27.0288  27.1565  27.1995  27.5744  27.7040
    27.8916  27.9148  28.0044  28.3593  28.5969  28.9530  29.2147  29.5858
    29.7118  30.6583  30.7895  30.8246  31.4950  31.8454  32.1986  32.3576
    32.5127  32.6006  32.7716  33.2666  33.3694  33.4812  33.8982  34.1792
    34.3645  34.5481  34.7300  35.0746  35.4144  35.6993  35.9697  36.3808
    36.6091  36.9168  40.8229  43.2631  43.5746  43.7265  46.9931  47.8238
    47.8801  48.8703  49.1496  50.4490  51.1379  51.4180  52.5136  53.0013
    53.3120  53.6993  53.7588  53.8847  54.2984  54.3425  54.7366  55.0289
    55.4669  55.6307  56.9233  57.4517  57.8020  58.1753  58.9119  59.0133
    59.6589  60.6444  60.9911

          k = 0.0000 0.3333 0.2857 (  2658 PWs)   bands (ev):

   -60.5307 -60.5119 -51.1898 -51.1513 -51.1052 -50.9403 -50.9187 -50.8684
   -19.5647 -19.5593 -19.5579 -19.5502 -19.5356 -19.5280 -15.0929 -14.6396
   -14.4582 -13.4119 -13.4027 -13.3579 -13.2074 -13.1675 -13.1450 -13.0661
   -13.0628 -12.9905 -12.9780 -12.9497 -12.9364 -12.9275 -12.9053 -12.4394
    26.3204  26.6784  26.9890  27.0189  27.0731  27.1245  27.4402  27.4979
    27.6892  27.9253  27.9655  28.6837  29.1061  29.3198  29.5081  29.5682
    30.4566  30.7832  30.9407  31.0769  31.7788  31.9337  32.0830  32.3267
    32.3562  32.4595  32.5027  32.9178  33.7330  33.7481  34.0929  34.2123
    34.2931  34.6589  34.7253  34.9732  35.1802  35.2212  35.4541  35.6882
    37.1272  37.1600  38.3088  41.8016  43.6887  44.1543  46.6089  47.2623
    48.3961  49.5646  50.0818  50.6155  51.0337  51.9053  51.9481  52.9335
    53.2519  53.3841  54.0693  54.4953  54.8206  55.0477  55.2415  55.2991
    56.1064  56.2742  56.8171  57.5789  57.8680  58.1566  58.4679  59.4607
    59.5184  60.2338  61.4345

          k = 0.0000 0.3333 0.4286 (  2654 PWs)   bands (ev):

   -60.5189 -60.5142 -51.1898 -51.1192 -51.0701 -50.9800 -50.9366 -50.8585
   -19.5708 -19.5670 -19.5579 -19.5477 -19.5204 -19.5144 -15.0874 -14.4720
   -14.1075 -13.5505 -13.3932 -13.3679 -13.3385 -13.2019 -13.1710 -13.1493
   -13.1087 -13.0163 -12.9993 -12.9848 -12.9268 -12.9225 -12.9083 -12.4512
    26.3461  26.4763  26.8109  27.0812  27.1370  27.1769  27.3373  27.4006
    27.6207  27.9212  27.9728  29.0072  29.3583  29.5872  29.7332  30.2039
    30.6355  31.1207  31.3267  31.4689  31.7969  32.0054  32.0082  32.1904
    32.3262  32.4271  32.4796  32.6418  33.3973  33.7989  33.9040  34.0644
    34.3494  34.5943  34.7584  34.8170  34.9064  35.3185  35.3318  35.5809
    36.0978  37.3067  38.2274  39.8869  43.6712  44.9987  46.1969  46.5995
    48.5867  49.2891  50.5164  50.9833  51.7117  51.7761  52.7483  53.2618
    53.3809  53.4628  53.8166  54.1783  55.0925  55.4574  55.6136  55.7757
    56.1426  56.6178  57.0729  57.5459  57.8293  58.0967  59.3625  59.4184
    59.4794  60.2480  61.2240

          k = 0.0000-0.5000 0.0000 (  2666 PWs)   bands (ev):

   -60.5261 -60.5261 -51.2162 -51.2162 -51.0313 -51.0313 -50.8498 -50.8498
   -19.5643 -19.5643 -19.5563 -19.5563 -19.5359 -19.5359 -15.0928 -15.0928
   -13.8288 -13.8288 -13.4528 -13.4528 -13.2767 -13.2767 -13.1061 -13.1061
   -12.9729 -12.9729 -12.9723 -12.9723 -12.9247 -12.9247 -12.4479 -12.4479
    26.3452  26.3452  26.9287  26.9287  27.0738  27.0738  27.7572  27.7572
    27.9586  27.9586  28.1849  28.1849  28.8793  28.8793  29.0412  29.0412
    30.9676  30.9676  31.1930  31.1930  32.0606  32.0606  32.3175  32.3175
    32.5965  32.5965  32.7002  32.7002  32.8591  32.8591  34.0421  34.0421
    34.2387  34.2387  34.2816  34.2816  35.2294  35.2294  36.1482  36.1482
    37.1611  37.1611  43.0522  43.0522  43.4249  43.4249  46.9126  46.9126
    47.3797  47.3797  50.9024  50.9024  51.4438  51.4438  53.0437  53.0437
    53.4055  53.4055  53.9410  53.9410  54.0629  54.0629  54.5162  54.5162
    55.7349  55.7349  57.5734  57.5735  57.7415  57.7416  59.3724  59.3725
    59.7126  59.7126  60.7108

          k = 0.0000-0.5000 0.1429 (  2666 PWs)   bands (ev):

   -60.5265 -60.5265 -51.2106 -51.2037 -51.0333 -51.0306 -50.8673 -50.8557
   -19.5694 -19.5649 -19.5618 -19.5588 -19.5339 -19.5313 -15.0898 -14.9712
   -13.8355 -13.8268 -13.4324 -13.4267 -13.2943 -13.2622 -13.1147 -13.0939
   -13.0287 -12.9824 -12.9642 -12.9478 -12.9377 -12.9197 -12.5949 -12.4445
    26.3817  26.4041  26.9747  27.0082  27.0200  27.1199  27.6229  27.6594
    27.7955  27.9698  28.0080  28.3458  28.7410  28.9880  29.1814  29.7112
    30.8614  31.1228  31.1991  31.3104  32.0960  32.1123  32.1408  32.3268
    32.3426  32.5478  32.6216  32.7561  33.0858  33.2783  33.8053  33.9201
    34.0369  34.1487  34.5655  34.7462  35.2362  35.2450  35.7823  36.0176
    36.7042  37.1967  41.6917  42.1594  43.4864  43.5554  46.6784  47.1585
    48.1820  48.6054  49.7074  50.8276  51.5010  52.1330  52.5302  52.6290
    53.3525  53.3654  53.8612  53.9219  54.4972  54.5381  55.0456  55.2486
    55.8119  56.1198  57.1857  57.6335  57.9164  58.1689  58.4603  59.4606
    59.7606  60.5061  60.9492

          k = 0.0000-0.5000 0.2857 (  2658 PWs)   bands (ev):

   -60.5201 -60.5199 -51.1875 -51.1428 -51.0294 -51.0279 -50.9148 -50.8681
   -19.5731 -19.5697 -19.5595 -19.5499 -19.5215 -19.5166 -15.0937 -14.6230
   -13.8462 -13.8141 -13.4007 -13.3795 -13.3157 -13.2178 -13.1457 -13.0979
   -13.0859 -13.0024 -12.9693 -12.9396 -12.9337 -12.9308 -12.9236 -12.4518
    26.3980  26.4213  26.8507  27.1053  27.1362  27.2226  27.2316  27.4342
    27.7181  27.8844  27.9793  28.9669  29.1030  29.3041  29.6112  30.4335
    30.5063  31.3443  31.4001  31.4820  31.6560  32.1329  32.2045  32.3209
    32.3405  32.4022  32.4673  32.5310  33.0104  33.8087  33.9156  34.0033
    34.2303  34.3599  34.9655  34.9981  35.2289  35.2985  35.3349  35.3907
    35.6947  37.2947  39.4496  39.9801  43.6242  44.7269  46.2796  46.6401
    48.8233  49.2423  50.5689  50.9350  51.3072  51.6371  52.8772  52.9949
    53.3073  53.6483  53.8087  53.8449  55.3054  55.3421  55.3781  55.8686
    55.9398  56.7846  57.0463  57.1515  57.9085  58.4823  58.8078  59.5893
    59.8691  59.9275  61.1377

          k = 0.0000-0.5000 0.4286 (  2662 PWs)   bands (ev):

   -60.5239 -60.5238 -51.2049 -51.0851 -51.0360 -51.0315 -50.9771 -50.8546
   -19.5713 -19.5711 -19.5639 -19.5524 -19.5209 -19.5142 -15.0775 -14.1327
   -13.8613 -13.8143 -13.5479 -13.3667 -13.3503 -13.3287 -13.1857 -13.1560
   -13.1541 -13.0372 -13.0342 -13.0162 -12.9163 -12.9097 -12.9054 -12.4614
    26.3410  26.3506  26.6830  27.1275  27.1407  27.2509  27.3576  27.3709
    27.4542  27.9484  27.9877  29.4035  29.4900  29.8640  30.2163  30.3163
    31.0404  31.0590  31.4122  31.5778  31.8017  32.0648  32.1627  32.4102
    32.4431  32.4531  32.4699  32.5105  32.6195  33.3915  33.6733  33.8775
    33.9532  34.5643  34.9378  34.9740  35.2771  35.3247  35.5813  35.8994
    36.0190  37.3881  37.4036  37.9439  43.7231  45.9063  45.9326  46.1966
    48.6265  48.7168  49.6157  51.7748  52.3666  52.8585  53.4267  53.4590
    53.4719  53.6779  53.7625  53.9052  54.7639  55.5384  55.7325  56.0216
    56.4899  56.6113  56.6846  57.6861  58.5162  58.9427  59.1413  59.4162
    59.8119  59.8208  60.4099

          k = 0.2000 0.0000 0.0000 (  2661 PWs)   bands (ev):

   -60.5468 -60.4990 -51.2199 -51.2035 -51.1714 -50.8878 -50.8461 -50.8461
   -19.5644 -19.5644 -19.5534 -19.5504 -19.5504 -19.5420 -15.1252 -15.0716
   -14.8311 -13.4600 -13.4600 -13.4251 -13.0915 -13.0915 -13.0769 -13.0200
   -12.9839 -12.9839 -12.9265 -12.9265 -12.9234 -12.7072 -12.4474 -12.4474
    26.1153  26.4230  27.1504  27.2710  27.4079  27.4079  27.6130  27.6848
    28.0931  28.1094  28.1094  28.3232  28.5128  28.5128  28.8293  28.8844
    29.2775  29.9171  30.2632  30.2632  30.5703  30.8632  32.5050  32.5050
    32.6273  32.7915  33.0511  33.7169  33.7169  34.1547  34.2964  34.3422
    34.3422  34.7276  34.7430  35.6278  35.6278  35.8519  36.0622  36.2051
    36.2051  38.9598  42.6020  42.6020  43.8226  44.0057  47.3478  47.6604
    48.3604  49.3429  49.3954  49.3954  51.3588  51.3588  52.8318  53.0947
    53.0947  53.1854  53.2955  53.3986  53.3986  53.5364  54.0564  54.0743
    54.0743  55.4207  56.6485  56.6485  57.1538  58.9444  59.3782  59.6917
    60.6289  60.6290  60.9038

          k = 0.2000 0.0000 0.1429 (  2667 PWs)   bands (ev):

   -60.5399 -60.5177 -51.2106 -51.2028 -51.1757 -50.8866 -50.8693 -50.8586
   -19.5712 -19.5667 -19.5572 -19.5525 -19.5468 -19.5424 -15.1099 -14.9890
   -14.8191 -13.4523 -13.4476 -13.4288 -13.1324 -13.1074 -13.0415 -13.0227
   -13.0034 -12.9721 -12.9561 -12.9346 -12.9059 -12.7235 -12.5874 -12.4428
    26.2179  26.5023  27.1371  27.2334  27.3445  27.3856  27.5378  27.6027
    27.9498  28.0025  28.0936  28.2792  28.4697  28.6355  28.9024  29.3097
    29.6010  30.0390  30.2077  30.4229  30.7373  31.0225  32.3848  32.4505
    32.6191  32.8127  32.9933  33.7790  33.8808  34.0339  34.0833  34.2411
    34.3894  34.7188  34.7692  35.5745  35.5993  35.6554  35.8847  35.9231
    36.4985  39.1079  40.3854  42.8510  43.8740  45.1218  46.9963  47.8515
    48.2236  48.5645  49.0138  50.4245  50.9965  51.2098  52.7462  52.8311
    53.1556  53.2221  53.4878  53.6316  53.8785  53.9551  54.1570  54.2563
    54.8436  55.9362  56.5099  56.7762  57.5962  58.5417  59.3519  59.6460
    59.9831  60.2025  61.2518

          k = 0.2000 0.0000 0.2857 (  2659 PWs)   bands (ev):

   -60.5269 -60.5173 -51.2023 -51.1815 -51.1302 -50.9169 -50.8882 -50.8567
   -19.5611 -19.5606 -19.5581 -19.5511 -19.5414 -19.5352 -15.0976 -14.8632
   -14.6090 -13.4337 -13.4268 -13.3927 -13.1658 -13.1266 -13.0625 -13.0209
   -13.0045 -12.9596 -12.9585 -12.9531 -12.9489 -12.9059 -12.7106 -12.4413
    26.2737  26.7328  26.9702  27.0761  27.1858  27.2033  27.5027  27.6432
    27.7956  27.9246  28.0108  28.4204  28.6669  28.9548  29.2438  29.4083
    30.0615  30.4409  30.5497  30.7714  31.4300  31.5097  32.2248  32.3728
    32.5555  32.5644  32.8624  33.4407  33.6364  33.7759  33.8012  34.2634
    34.4542  34.5387  34.8387  35.1859  35.3958  35.5391  35.8441  35.8670
    36.8757  37.6255  39.5766  43.4005  43.5955  43.7506  47.1135  48.0188
    48.3175  48.4523  49.1547  50.6913  51.0953  51.2496  52.3824  52.8121
    53.2607  53.3983  53.8163  53.9983  54.5264  54.5659  54.8104  54.8889
    55.7317  55.9413  56.5116  57.4940  57.8732  58.1497  58.9207  59.2466
    59.5161  60.1250  61.5043

          k = 0.2000 0.0000 0.4286 (  2660 PWs)   bands (ev):

   -60.5270 -60.5167 -51.1954 -51.1823 -51.0667 -50.9865 -50.8806 -50.8651
   -19.5650 -19.5646 -19.5578 -19.5564 -19.5306 -19.5270 -15.0953 -14.8604
   -14.1136 -13.5402 -13.4225 -13.4038 -13.3162 -13.2289 -13.1272 -13.0807
   -13.0498 -12.9927 -12.9572 -12.9519 -12.9331 -12.9130 -12.7180 -12.4358
    26.3248  26.5429  26.9923  26.9968  27.0877  27.1414  27.4836  27.5299
    27.8440  27.8793  27.9780  28.5593  28.7510  29.1603  29.2681  30.0373
    30.3743  31.0848  31.1450  31.5546  31.9026  31.9317  32.1108  32.3225
    32.3390  32.3621  32.6979  32.7868  33.2249  33.5660  33.8346  34.1071
    34.1178  34.2770  34.6366  34.9338  35.2637  35.5025  35.5810  35.8946
    36.2165  37.1823  40.3887  41.8541  43.5693  43.8946  46.6018  47.1172
    48.7538  49.2514  49.3261  50.8836  51.4863  51.8913  51.9612  52.8577
    53.2724  53.7502  53.8049  54.0515  54.6465  54.7802  55.1125  55.6546
    55.7418  56.3051  57.1635  57.6446  57.6863  58.0705  58.8007  59.2134
    59.6144  60.5733  61.1304

          k = 0.2000 0.1667 0.0000 (  2672 PWs)   bands (ev):

   -60.5388 -60.5296 -51.2198 -51.2042 -51.1649 -50.8936 -50.8866 -50.8588
   -19.5795 -19.5644 -19.5611 -19.5522 -19.5509 -19.5394 -15.1118 -14.9559
   -14.8206 -13.4473 -13.4417 -13.4299 -13.1451 -13.1137 -13.0357 -13.0258
   -13.0049 -12.9747 -12.9589 -12.9516 -12.9055 -12.7270 -12.6323 -12.4477
    26.2373  26.5366  27.1284  27.1976  27.3185  27.3679  27.5212  27.6187
    27.9076  27.9861  28.0809  28.2860  28.4990  28.6780  28.9151  29.3573
    29.7260  30.0631  30.2224  30.4731  30.8110  31.0768  32.3571  32.4362
    32.6160  32.7765  33.0062  33.7875  33.8790  33.9853  33.9999  34.2748
    34.3816  34.7121  34.7662  35.5168  35.6117  35.6534  35.8280  35.8616
    36.5586  39.1475  39.9329  42.9311  43.8600  45.0039  47.1258  47.9631
    48.2029  48.4211  48.8765  50.6064  50.9224  51.1933  52.7241  52.8023
    53.1588  53.2051  53.5017  53.6860  53.9772  54.0831  54.2756  54.3546
    54.9839  56.0205  56.4783  56.8543  57.7203  58.4173  59.3381  59.5951
    59.7986  60.0955  61.4203

          k = 0.2000 0.1667 0.1429 (  2665 PWs)   bands (ev):

   -60.5379 -60.5172 -51.1986 -51.1907 -51.1760 -50.8918 -50.8839 -50.8574
   -19.5772 -19.5578 -19.5553 -19.5509 -19.5462 -19.5400 -14.9949 -14.9441
   -14.8133 -13.4442 -13.4279 -13.4209 -13.1854 -13.0668 -13.0567 -13.0062
   -12.9912 -12.9844 -12.9752 -12.9335 -12.9181 -12.7232 -12.6375 -12.5813
    26.4071  26.5380  27.1109  27.1271  27.3275  27.3382  27.4498  27.7855
    27.8055  27.9219  27.9444  28.1252  28.4929  28.6303  29.4764  29.6010
    29.7127  30.2212  30.3575  30.4327  30.9464  31.2376  32.2500  32.2977
    32.6998  33.0380  33.1040  33.7889  33.8087  33.8428  33.8473  34.2598
    34.3669  34.7339  34.7508  35.3311  35.3735  35.4771  35.8273  36.0902
    36.2500  39.3662  40.1349  40.6570  45.1307  45.2048  46.6442  47.0024
    48.2017  48.3524  49.5292  50.0317  51.5382  51.9369  52.5705  52.7688
    53.0399  53.2398  53.3536  53.8162  54.2682  54.4292  54.7001  55.0263
    55.1934  55.7950  57.0406  57.2384  57.6637  58.0169  59.3004  59.4715
    59.6238  60.1843  60.9202

          k = 0.2000 0.1667 0.2857 (  2655 PWs)   bands (ev):

   -60.5329 -60.5021 -51.1775 -51.1702 -51.1296 -50.9217 -50.8817 -50.8735
   -19.5595 -19.5578 -19.5542 -19.5452 -19.5423 -19.5308 -14.9369 -14.8527
   -14.6147 -13.4305 -13.4034 -13.3779 -13.2122 -13.0782 -13.0703 -13.0208
   -13.0109 -12.9931 -12.9650 -12.9338 -12.9319 -12.9178 -12.7095 -12.6303
    26.4572  26.7459  26.9569  27.0465  27.1993  27.2137  27.4230  27.6292
    27.7704  27.7902  28.0467  28.2899  28.5326  29.0946  29.5699  29.9076
    30.0975  30.4737  30.7030  30.8179  31.5044  31.7263  32.0054  32.2028
    32.8146  32.9885  33.1731  33.3625  33.5137  33.5903  33.7975  33.9810
    34.4831  34.6838  34.8224  35.0954  35.1932  35.2489  35.3715  36.0695
    36.3391  38.0128  39.9270  40.6534  43.8897  44.3635  46.1418  47.4175
    48.5469  49.0641  49.7277  49.9173  51.7794  52.3155  52.4240  52.8074
    53.3892  53.6812  53.7975  54.0474  54.6258  54.9984  55.3306  55.5487
    55.6887  56.2260  57.0044  57.2580  57.5740  58.2008  58.7468  59.2839
    59.7645  60.0400  60.8619

          k = 0.2000 0.1667 0.4286 (  2655 PWs)   bands (ev):

   -60.5189 -60.5138 -51.1786 -51.1699 -51.0609 -50.9899 -50.8827 -50.8693
   -19.5631 -19.5579 -19.5554 -19.5493 -19.5284 -19.5271 -14.9239 -14.8536
   -14.1144 -13.5424 -13.4114 -13.3899 -13.3071 -13.2493 -13.1085 -13.0997
   -13.0269 -13.0128 -12.9543 -12.9461 -12.9334 -12.9211 -12.7115 -12.6345
    26.4385  26.6013  26.9958  27.0395  27.0982  27.1268  27.4931  27.5721
    27.6433  27.6927  28.1433  28.4016  28.7194  29.1839  30.0106  30.1280
    30.3660  31.2552  31.3371  31.4313  31.6946  31.9879  32.0968  32.2532
    32.5123  32.6939  32.9108  33.0441  33.2491  33.4726  33.6567  33.7116
    34.1121  34.3428  34.8058  34.8910  35.1254  35.2664  35.3727  36.0156
    36.2667  36.5542  40.7990  41.4927  42.1593  42.7763  46.7266  47.1862
    48.9555  49.2161  49.8108  50.1661  52.3050  52.4208  52.5294  52.8056
    53.7469  53.8146  54.3069  54.5614  54.7231  54.9039  55.5779  55.8656
    55.9935  56.4058  56.9103  57.0955  57.8705  58.4217  58.9661  59.2717
    59.8368  60.2737  60.8533

          k = 0.2000 0.3333 0.0000 (  2656 PWs)   bands (ev):

   -60.5287 -60.5093 -51.2006 -51.1813 -51.1068 -50.9391 -50.8806 -50.8536
   -19.5630 -19.5595 -19.5561 -19.5498 -19.5405 -19.5274 -15.0924 -14.8560
   -14.4622 -13.4297 -13.4248 -13.3658 -13.1948 -13.1554 -13.1255 -13.0523
   -13.0303 -12.9790 -12.9548 -12.9546 -12.9417 -12.9050 -12.7121 -12.4417
    26.2784  26.7311  26.9333  27.0695  27.1061  27.1760  27.5107  27.5802
    27.8257  27.8971  27.9934  28.4840  28.6904  29.0756  29.3367  29.5631
    30.0815  30.6802  30.8373  30.9025  31.5952  31.8640  32.1539  32.3522
    32.4745  32.5152  32.6744  33.1794  33.5400  33.6842  33.8072  34.2351
    34.3141  34.5807  34.8770  34.8997  35.3734  35.4941  35.8629  36.0014
    36.8076  36.9981  39.7940  42.9863  43.5899  43.6799  46.8894  47.6658
    48.4874  48.6854  49.4349  50.8731  51.1129  51.3248  52.2163  52.8693
    53.2861  53.5301  53.9377  54.1102  54.5941  54.6522  54.9540  55.1102
    55.8736  55.9527  56.7476  57.6619  57.6729  58.2434  58.7170  59.1558
    59.5047  60.3632  61.3989

          k = 0.2000 0.3333 0.1429 (  2657 PWs)   bands (ev):

   -60.5309 -60.5075 -51.1862 -51.1753 -51.1068 -50.9466 -50.8782 -50.8701
   -19.5591 -19.5583 -19.5557 -19.5501 -19.5395 -19.5301 -14.9745 -14.8520
   -14.4655 -13.4256 -13.4105 -13.3561 -13.2207 -13.1563 -13.0943 -13.0676
   -13.0233 -13.0010 -12.9665 -12.9540 -12.9328 -12.9186 -12.7143 -12.5846
    26.4027  26.7563  26.9400  27.0465  27.1416  27.1716  27.4627  27.6115
    27.7664  27.7805  28.0070  28.4134  28.5022  29.3574  29.5306  29.8371
    30.1275  30.7325  30.8701  30.9874  31.6702  31.8911  31.9814  32.2366
    32.7445  32.7610  32.9823  33.1835  33.5049  33.5553  33.7494  33.9160
    34.5300  34.6560  34.8188  34.8945  35.1303  35.2807  35.4279  36.1249
    36.5711  37.1494  40.0811  41.3066  43.2133  44.0509  46.5857  47.2812
    48.5872  49.1477  49.7398  50.1464  51.5855  52.1479  52.4149  52.7980
    53.5566  53.7175  54.0451  54.2307  54.5579  55.0812  55.2424  55.5141
    55.8564  56.4558  56.8206  57.1027  57.6022  58.4152  58.5937  59.2385
    59.8430  60.3074  60.7835

          k = 0.2000 0.3333 0.2857 (  2656 PWs)   bands (ev):

   -60.5273 -60.5077 -51.1656 -51.1444 -51.1145 -50.9385 -50.9079 -50.8849
   -19.5633 -19.5594 -19.5514 -19.5432 -19.5351 -19.5264 -14.8564 -14.6263
   -14.4606 -13.4071 -13.3718 -13.3381 -13.2649 -13.1671 -13.0891 -13.0827
   -13.0558 -13.0065 -12.9828 -12.9587 -12.9378 -12.9344 -12.9230 -12.7121
    26.5410  26.7619  26.9024  27.0351  27.0946  27.1621  27.3497  27.4294
    27.6237  27.6681  28.2506  28.5539  29.0063  29.4798  29.7784  30.1646
    30.5884  30.7325  30.9796  31.2490  31.8029  31.8638  32.0555  32.2812
    32.7434  32.9294  33.0458  33.1649  33.5022  33.5760  33.6920  34.1075
    34.4726  34.5928  34.6803  34.8264  34.8539  35.0009  35.0712  35.3867
    36.2438  37.8119  38.8683  40.7081  42.2626  43.8089  44.8884  47.0516
    49.2720  49.5382  50.0354  50.7730  52.2837  52.8623  52.9660  53.2067
    53.6761  53.7330  54.3786  54.5749  55.1820  55.3728  55.6107  55.9788
    56.3174  56.4889  56.6512  57.3800  57.5214  58.2743  58.7459  59.3939
    59.8099  60.0741  60.7666

          k = 0.2000 0.3333 0.4286 (  2643 PWs)   bands (ev):

   -60.5072 -60.5025 -51.1467 -51.1183 -51.0561 -50.9764 -50.9148 -50.8854
   -19.5571 -19.5554 -19.5450 -19.5411 -19.5231 -19.5141 -14.8488 -14.4613
   -14.1075 -13.5471 -13.3740 -13.3353 -13.3234 -13.2372 -13.1691 -13.1107
   -13.0878 -13.0211 -13.0037 -12.9797 -12.9514 -12.9366 -12.9244 -12.7056
    26.5143  26.5996  26.8970  27.0597  27.0755  27.1713  27.3092  27.3628
    27.5313  27.6733  28.2030  28.9725  29.3243  29.7097  30.2287  30.3207
    30.7446  31.2195  31.3978  31.6160  31.7939  31.9140  32.1218  32.3748
    32.5805  32.6281  32.8118  33.0669  33.3134  33.3917  33.6739  33.9871
    34.2925  34.3543  34.5700  34.7098  34.7670  34.9101  35.2264  35.3802
    36.3519  36.7915  38.8513  40.3759  41.5638  43.0920  44.8446  45.9456
    49.7408  49.9698  50.2917  51.8319  52.5048  53.0847  53.4642  53.5925
    53.9350  54.0529  54.4854  54.8200  55.2715  55.5089  55.9638  56.1581
    56.3912  56.5402  56.9056  57.4703  57.7449  58.1320  59.2801  59.3438
    59.6493  60.3525  60.5318

          k = 0.2000-0.5000 0.0000 (  2658 PWs)   bands (ev):

   -60.5192 -60.5189 -51.1990 -51.1746 -51.0272 -51.0271 -50.8827 -50.8555
   -19.5634 -19.5604 -19.5582 -19.5521 -19.5321 -19.5291 -15.0902 -14.8581
   -13.8384 -13.8209 -13.4211 -13.4090 -13.3040 -13.2429 -13.1208 -13.0848
   -13.0541 -12.9901 -12.9571 -12.9502 -12.9293 -12.9084 -12.7122 -12.4381
    26.4067  26.4168  26.9651  27.0187  27.0945  27.1333  27.4611  27.5365
    27.8292  27.8935  27.9755  28.5698  28.7961  29.0884  29.3196  30.0505
    30.7099  31.2253  31.3007  31.3939  31.8436  32.1283  32.2079  32.3049
    32.3458  32.5131  32.5247  32.6981  33.1584  33.6003  33.8468  33.8873
    34.0456  34.0550  34.7205  34.9506  35.2245  35.2654  35.5119  35.9028
    36.2703  37.2297  40.8109  41.3065  43.5389  43.9786  46.5423  46.9710
    48.8815  49.1614  49.4680  50.7863  51.5478  51.8867  52.4569  52.6258
    53.3028  53.5463  53.8220  54.0562  54.6258  54.8516  55.3933  55.4910
    55.8453  56.5084  56.9887  57.6736  57.9744  58.1131  58.4442  59.5483
    59.8939  60.2906  60.9165

          k = 0.2000-0.5000 0.1429 (  2658 PWs)   bands (ev):

   -60.5194 -60.5191 -51.1850 -51.1726 -51.0272 -51.0265 -50.8825 -50.8693
   -19.5659 -19.5629 -19.5575 -19.5528 -19.5265 -19.5250 -14.9688 -14.8578
   -13.8314 -13.8229 -13.4109 -13.4068 -13.2871 -13.2591 -13.1197 -13.1042
   -13.0291 -13.0105 -12.9505 -12.9428 -12.9336 -12.9258 -12.7118 -12.5869
    26.4748  26.4846  26.9735  27.0553  27.1007  27.1262  27.5146  27.5582
    27.6501  27.7469  28.0756  28.4114  28.8909  28.9703  29.8919  30.1203
    30.8234  31.0487  31.4821  31.5270  31.8465  32.0481  32.2503  32.2768
    32.4182  32.4353  32.8613  32.9569  33.2335  33.3853  33.5076  33.6797
    34.1310  34.1977  34.7877  34.9158  35.3300  35.3838  35.3947  35.5045
    36.2912  36.7574  41.2610  41.4014  42.3333  42.5179  47.0790  47.0817
    49.0138  49.1492  49.5521  50.1434  52.3280  52.4210  52.6743  52.7319
    53.6069  53.6355  54.1770  54.4711  54.7098  55.0323  55.6218  55.8406
    56.0356  56.0628  56.9863  57.2850  58.0567  58.2710  59.0967  59.3296
    59.8844  60.0115  60.9453

          k = 0.2000-0.5000 0.2857 (  2648 PWs)   bands (ev):

   -60.5098 -60.5093 -51.1558 -51.1420 -51.0229 -51.0204 -50.8961 -50.8825
   -19.5570 -19.5540 -19.5498 -19.5497 -19.5217 -19.5187 -14.8487 -14.6195
   -13.8344 -13.8200 -13.3793 -13.3687 -13.2993 -13.2523 -13.1208 -13.1160
   -13.0408 -13.0159 -12.9660 -12.9524 -12.9469 -12.9356 -12.9218 -12.7093
    26.5287  26.5594  26.9316  27.0816  27.0847  27.1290  27.3513  27.4331
    27.5156  27.6538  28.2375  28.8929  29.1227  29.3114  30.2882  30.4557
    30.7439  31.1776  31.6114  31.7160  31.7951  31.9265  32.3246  32.3649
    32.4347  32.5183  32.8098  32.9329  33.2564  33.3017  33.4945  34.0528
    34.1090  34.1896  34.7028  34.8548  34.9365  35.1828  35.4089  35.7506
    35.7644  36.3501  40.2180  40.2916  41.7308  42.2748  45.7856  45.9827
    49.6749  49.8122  50.1398  51.2519  52.6876  52.9696  53.2830  53.3823
    54.0128  54.0430  54.4364  54.6060  55.1568  55.4075  55.9326  56.0270
    56.3993  56.4586  56.9647  57.1969  57.9012  58.3233  59.4533  59.4998
    59.5734  60.1312  60.6668

          k = 0.2000-0.5000 0.4286 (  2646 PWs)   bands (ev):

   -60.5075 -60.5068 -51.1469 -51.0637 -51.0278 -51.0187 -50.9668 -50.8879
   -19.5566 -19.5561 -19.5520 -19.5444 -19.5152 -19.5116 -14.8532 -14.1257
   -13.8472 -13.8152 -13.5401 -13.3565 -13.3536 -13.2899 -13.1905 -13.1277
   -13.1253 -13.0306 -13.0077 -13.0019 -12.9456 -12.9348 -12.9317 -12.7083
    26.4900  26.5010  26.7904  27.0976  27.1094  27.2328  27.2565  27.2965
    27.5059  27.7031  28.1365  29.4783  29.4905  30.0902  30.3146  30.4270
    31.1289  31.2680  31.8886  31.8899  31.9641  32.0547  32.2694  32.3308
    32.4199  32.5727  32.6163  32.6396  32.8409  33.1540  33.4127  33.8738
    33.9491  34.1671  34.4864  34.5224  34.8448  34.9220  35.3467  36.4167
    36.6481  36.6827  38.2477  38.2483  42.3233  43.4081  44.1763  44.7031
    50.1385  50.3407  50.4317  52.1718  53.2346  53.5591  53.6730  54.0049
    54.2141  54.2539  54.6965  54.8000  55.4446  55.8891  56.1193  56.1445
    56.2693  56.4212  56.9409  57.3935  57.8778  58.4610  59.1205  59.5620
    59.8105  59.8605  60.1529

          k = 0.4000 0.0000 0.0000 (  2657 PWs)   bands (ev):

   -60.5324 -60.5036 -51.2114 -51.2089 -51.0862 -50.9692 -50.8413 -50.8413
   -19.5652 -19.5652 -19.5524 -19.5524 -19.5388 -19.5265 -15.0980 -15.0691
   -14.2196 -13.4531 -13.4531 -13.4130 -13.3217 -13.1992 -13.1056 -13.1056
   -12.9850 -12.9609 -12.9609 -12.9457 -12.9345 -12.9345 -12.4500 -12.4500
    26.1846  26.6075  26.8456  26.9568  27.1205  27.1205  27.6889  27.8512
    27.9775  27.9775  28.0864  28.2505  28.8275  28.9557  28.9557  29.0162
    30.1871  30.8218  30.8218  31.5777  31.6641  32.2258  32.3373  32.3373
    32.3393  32.3671  32.6461  32.9583  32.9583  33.0666  34.1876  34.1876
    34.3196  34.3514  34.3671  35.0889  35.2991  35.2991  36.0897  36.1616
    37.0179  37.0179  42.9778  42.9778  43.4164  43.5931  47.0035  47.0603
    47.6640  47.6640  50.1424  50.5770  51.4693  51.4693  53.4214  53.4214
    53.4277  53.4555  53.6313  53.7719  53.7719  54.2922  54.3571  54.4741
    55.4237  55.4237  57.5175  57.5176  57.7954  58.1621  58.6407  59.2442
    59.9164  59.9165  61.2077

          k = 0.4000 0.0000 0.1429 (  2659 PWs)   bands (ev):

   -60.5289 -60.5133 -51.2000 -51.1946 -51.0785 -50.9718 -50.8650 -50.8625
   -19.5649 -19.5636 -19.5569 -19.5550 -19.5361 -19.5277 -15.0966 -14.9695
   -14.2255 -13.4463 -13.4329 -13.3970 -13.3224 -13.2094 -13.1157 -13.0829
   -13.0220 -12.9819 -12.9639 -12.9449 -12.9411 -12.9212 -12.5910 -12.4359
    26.2621  26.6154  26.9265  27.0132  27.0715  27.1478  27.5996  27.6789
    27.8377  27.9689  27.9821  28.3557  28.6684  29.0907  29.0980  29.7111
    30.1415  30.9334  30.9741  31.4664  31.7545  31.9593  32.3233  32.3330
    32.3978  32.4551  32.6153  32.9088  33.0692  33.3891  33.9080  34.1538
    34.2306  34.5032  34.6640  34.7343  35.3100  35.6807  35.7508  36.0002
    36.5814  37.0875  41.1623  42.9147  43.4373  43.5608  46.7893  47.4401
    48.0046  48.8145  49.4130  50.8392  51.4123  51.4811  52.5013  52.9375
    53.3029  53.7676  53.8007  53.8916  54.4190  54.4351  54.7677  55.3740
    55.5320  55.9162  57.2384  57.5443  57.5966  58.3989  58.6453  59.1454
    59.5234  60.8202  60.8377

          k = 0.4000 0.0000 0.2857 (  2657 PWs)   bands (ev):

   -60.5285 -60.5114 -51.1900 -51.1418 -51.0800 -50.9745 -50.9167 -50.8650
   -19.5710 -19.5642 -19.5587 -19.5496 -19.5285 -19.5166 -15.0939 -14.6310
   -14.2231 -13.4452 -13.4075 -13.3682 -13.3316 -13.2106 -13.1471 -13.0850
   -13.0809 -12.9952 -12.9752 -12.9407 -12.9341 -12.9299 -12.9086 -12.4463
    26.3362  26.5599  26.9036  27.0551  27.1174  27.1487  27.3740  27.4349
    27.7043  27.9029  27.9721  28.8278  29.1108  29.4284  29.4920  30.0249
    30.5487  30.9855  31.2228  31.3446  31.8584  31.9589  32.0358  32.2331
    32.3460  32.4357  32.5783  32.6232  33.7262  33.7758  33.9089  34.0388
    34.1735  34.4756  34.7112  34.9910  35.2058  35.3159  35.3629  35.6866
    36.2075  37.2289  38.7476  40.9297  43.6509  44.4855  46.3992  46.9035
    48.5717  49.5825  50.1845  50.9703  51.2141  51.7381  52.2193  53.0620
    53.3071  53.4879  54.0038  54.2405  55.0243  55.3296  55.3515  55.4477
    56.0634  56.4710  57.3126  57.5655  57.6410  57.8724  59.0224  59.3389
    59.6010  60.3460  61.3955

          k = 0.4000 0.0000 0.4286 (  2657 PWs)   bands (ev):

   -60.5228 -60.5160 -51.1935 -51.0798 -51.0705 -50.9964 -50.9658 -50.8610
   -19.5757 -19.5684 -19.5598 -19.5455 -19.5227 -19.5122 -15.0837 -14.2451
   -14.1046 -13.5625 -13.4403 -13.3823 -13.3391 -13.3176 -13.1892 -13.1591
   -13.1336 -13.0330 -13.0069 -13.0052 -12.9225 -12.9126 -12.9083 -12.4578
    26.3364  26.4149  26.7320  27.0810  27.1538  27.2156  27.3717  27.3720
    27.5126  27.9446  27.9755  29.1932  29.4969  29.8329  29.9958  30.3004
    30.8281  31.0900  31.3734  31.4353  31.8125  31.8499  32.0662  32.2928
    32.3736  32.4576  32.4935  32.5380  33.3221  33.7809  33.8121  33.8373
    34.0223  34.6462  34.8046  34.9241  35.0030  35.3168  35.3634  35.5295
    36.5481  37.2794  37.3642  38.9607  43.7005  45.5038  46.0282  46.3727
    48.5541  48.9955  49.9843  51.7475  51.7713  52.4375  53.1834  53.3973
    53.4248  53.5964  53.6298  54.1760  54.8590  55.5669  55.6190  56.2072
    56.2483  56.6527  56.7644  57.7223  58.0702  58.4284  59.1870  59.5010
    59.6437  60.1737  60.7603

          k = 0.4000 0.1667 0.0000 (  2659 PWs)   bands (ev):

   -60.5253 -60.5170 -51.1963 -51.1897 -51.0784 -50.9725 -50.8710 -50.8654
   -19.5659 -19.5630 -19.5567 -19.5531 -19.5359 -19.5281 -15.0971 -14.9266
   -14.2256 -13.4458 -13.4293 -13.3918 -13.3218 -13.2122 -13.1203 -13.0806
   -13.0331 -12.9835 -12.9622 -12.9486 -12.9399 -12.9169 -12.6399 -12.4351
    26.2806  26.6123  26.9476  27.0402  27.0521  27.1502  27.5685  27.6031
    27.8442  27.9278  27.9820  28.4226  28.6834  29.1401  29.1420  29.8524
    30.1397  30.9518  31.0180  31.4347  31.7847  31.9371  32.3119  32.3250
    32.3786  32.4041  32.6266  32.8810  33.1936  33.4556  33.8692  34.1627
    34.1992  34.5204  34.6030  34.8128  35.3091  35.6430  35.7564  35.9561
    36.4250  37.1079  40.7592  42.6236  43.5739  43.5872  46.7430  47.3654
    48.3107  49.0022  49.2972  50.8993  51.4501  51.4736  52.2909  52.9014
    53.2855  53.7866  53.8450  53.9364  54.5141  54.5445  54.8821  55.4783
    55.6233  56.0349  57.2052  57.5097  57.6346  58.3044  58.7684  59.0664
    59.5303  60.7319  61.0544

          k = 0.4000 0.1667 0.1429 (  2662 PWs)   bands (ev):

   -60.5269 -60.5200 -51.1906 -51.1857 -51.0781 -50.9842 -50.8777 -50.8684
   -19.5674 -19.5617 -19.5602 -19.5528 -19.5353 -19.5281 -14.9731 -14.9212
   -14.2276 -13.4455 -13.4262 -13.3843 -13.3209 -13.2305 -13.1055 -13.0970
   -13.0237 -13.0096 -12.9561 -12.9525 -12.9399 -12.9221 -12.6401 -12.5914
    26.3751  26.6437  26.9842  27.0198  27.1031  27.1388  27.5343  27.6578
    27.7193  27.7436  28.0689  28.3221  28.5877  29.1496  29.8262  29.9333
    30.1029  31.0847  31.1393  31.4444  31.6239  31.8739  32.2203  32.3447
    32.5382  32.5946  32.8309  33.0312  33.1986  33.4292  33.7484  33.8605
    34.3827  34.4052  34.7289  34.8051  35.1253  35.4783  35.5476  36.1151
    36.4859  36.6607  41.0550  41.5545  42.8503  43.2267  47.1563  47.2648
    48.4522  49.0488  49.6700  50.1373  51.7390  52.1807  52.5023  52.6977
    53.6650  53.7406  54.1557  54.3476  54.5428  54.7520  55.3712  55.5062
    55.9690  56.2675  56.9764  57.0725  57.7180  58.5688  58.7304  59.1377
    59.7878  60.4096  60.8202

          k = 0.4000 0.1667 0.2857 (  2650 PWs)   bands (ev):

   -60.5126 -60.5114 -51.1668 -51.1409 -51.0806 -50.9629 -50.9043 -50.8750
   -19.5631 -19.5557 -19.5512 -19.5458 -19.5248 -19.5219 -14.9248 -14.6202
   -14.2186 -13.4493 -13.3966 -13.3455 -13.3207 -13.2458 -13.1114 -13.0970
   -13.0539 -13.0066 -12.9759 -12.9510 -12.9399 -12.9298 -12.9184 -12.6305
    26.4711  26.6343  26.9428  27.0608  27.0909  27.1453  27.3769  27.4146
    27.6410  27.7306  28.0497  28.7395  29.0104  29.5265  30.0168  30.1260
    30.6103  31.0956  31.2339  31.4452  31.6990  31.9523  32.0763  32.3917
    32.5485  32.6175  32.8385  32.9875  33.4793  33.6521  33.7131  33.9916
    34.1992  34.3920  34.7905  34.8147  34.9454  35.1234  35.1729  35.4121
    36.5739  36.7331  39.1866  41.2622  41.6638  43.5154  45.6349  46.7594
    49.3760  49.6091  49.8644  51.0671  52.2158  52.6432  52.8451  53.2094
    53.7359  53.8032  54.4357  54.7016  55.0854  55.1847  55.6975  56.0387
    56.2727  56.6043  56.7558  57.3235  57.7264  58.1697  59.0020  59.4512
    59.7334  60.3621  60.7336

          k = 0.4000 0.1667 0.4286 (  2652 PWs)   bands (ev):

   -60.5146 -60.5122 -51.1590 -51.0875 -51.0649 -50.9840 -50.9595 -50.8860
   -19.5630 -19.5615 -19.5532 -19.5441 -19.5242 -19.5123 -14.9244 -14.2375
   -14.1047 -13.5563 -13.4438 -13.3679 -13.3318 -13.3077 -13.2120 -13.1285
   -13.1220 -13.0319 -13.0078 -12.9970 -12.9417 -12.9315 -12.9253 -12.6339
    26.4535  26.5113  26.8059  27.0918  27.1171  27.2298  27.2918  27.3308
    27.6138  27.7687  27.9367  29.1585  29.5253  29.9768  30.1864  30.3996
    30.8588  31.2117  31.4179  31.6502  31.8584  32.1139  32.2026  32.2427
    32.5104  32.5304  32.6202  32.7444  33.3061  33.4077  33.7432  33.8378
    34.0869  34.2943  34.6223  34.6945  34.8206  34.8759  35.3467  35.6219
    36.6801  37.0985  37.7564  39.3143  42.3673  43.9677  44.6069  45.6881
    49.7421  49.9478  50.0873  52.1405  52.6269  52.9589  53.4300  53.8409
    53.8642  54.0195  54.1196  54.7381  55.2650  55.7847  55.9115  56.1613
    56.3834  56.5627  57.0933  57.2636  58.0369  58.1761  59.0611  59.4845
    59.6938  60.2956  60.3703

          k = 0.4000 0.3333 0.0000 (  2652 PWs)   bands (ev):

   -60.5194 -60.5107 -51.1917 -51.1125 -51.0802 -50.9691 -50.9366 -50.8561
   -19.5683 -19.5667 -19.5571 -19.5473 -19.5203 -19.5142 -15.0868 -14.4780
   -14.2185 -13.4442 -13.3962 -13.3669 -13.3282 -13.2001 -13.1704 -13.1486
   -13.1009 -13.0104 -13.0013 -12.9795 -12.9262 -12.9230 -12.9050 -12.4508
    26.3379  26.5174  26.8359  27.0616  27.1251  27.1667  27.3748  27.4039
    27.6203  27.9274  27.9665  28.9461  29.3751  29.6029  29.6674  30.0470
    30.6483  31.0420  31.2846  31.2944  31.8690  31.9927  32.0133  32.2129
    32.3367  32.4470  32.5200  32.5276  33.7606  33.7839  33.9606  34.0977
    34.2357  34.5829  34.6811  34.8299  34.8675  35.3047  35.3581  35.5802
    36.4631  37.2806  37.9957  40.2413  43.6759  44.8632  46.2495  46.7101
    48.5178  49.4190  50.5931  50.8268  51.5803  51.7319  52.6241  53.2164
    53.3383  53.4257  53.8876  54.3492  55.0443  55.3169  55.5591  55.7387
    56.1532  56.5583  57.3045  57.5350  57.7995  57.8167  59.1558  59.5205
    59.5406  60.3321  61.2151

          k = 0.4000 0.3333 0.1429 (  2654 PWs)   bands (ev):

   -60.5184 -60.5134 -51.1684 -51.1175 -51.0803 -50.9701 -50.9336 -50.8800
   -19.5654 -19.5613 -19.5567 -19.5483 -19.5218 -19.5178 -14.9689 -14.4755
   -14.2172 -13.4502 -13.3865 -13.3520 -13.3243 -13.2304 -13.1700 -13.1197
   -13.1011 -13.0187 -13.0028 -12.9836 -12.9415 -12.9349 -12.9178 -12.5845
    26.4383  26.5797  26.8815  27.0835  27.0950  27.1766  27.3478  27.3763
    27.6933  27.7953  27.8860  28.8668  29.3331  29.6886  29.9764  30.1424
    30.6927  31.1198  31.2402  31.4357  31.8615  31.9099  32.1116  32.3579
    32.5161  32.5625  32.6319  32.7836  33.5237  33.6844  33.8100  34.1540
    34.3047  34.4564  34.6865  34.7295  34.8368  34.9656  35.2230  35.3112
    36.7755  36.9018  38.3508  40.4929  42.2463  44.0686  45.4127  46.4956
    49.4071  49.7042  49.8139  51.6132  52.0068  52.5133  53.0185  53.3940
    53.5789  53.7351  54.2590  54.7054  55.1622  55.3773  55.7325  55.9897
    56.4344  56.5627  56.9861  57.3250  57.7577  58.0287  59.1274  59.4537
    59.6080  60.4373  60.7628

          k = 0.4000 0.3333 0.2857 (  2651 PWs)   bands (ev):

   -60.5115 -60.5113 -51.1290 -51.1108 -51.0800 -50.9670 -50.9341 -50.9106
   -19.5607 -19.5516 -19.5476 -19.5403 -19.5270 -19.5223 -14.6188 -14.4668
   -14.2192 -13.4477 -13.3887 -13.3334 -13.2956 -13.2601 -13.1581 -13.1057
   -13.0807 -13.0354 -13.0081 -12.9852 -12.9764 -12.9553 -12.9496 -12.9412
    26.6491  26.7185  26.8888  26.9591  27.0676  27.1415  27.2407  27.2914
    27.4212  27.4894  28.9005  29.0130  29.3979  29.9137  30.1094  30.4887
    30.8481  31.0481  31.2654  31.6433  31.8118  31.9555  32.0318  32.3516
    32.8297  32.8584  33.0731  33.1292  33.4111  33.5509  33.6872  33.8316
    34.0232  34.3110  34.4545  34.5624  34.7772  34.8582  35.0699  35.4098
    35.4531  37.6201  39.0543  40.0588  41.2047  42.1963  43.5213  45.2610
    49.9679  50.6279  51.1572  51.7135  53.0624  53.6475  53.9486  54.2207
    54.3381  54.4303  54.7876  54.9966  55.2793  55.7845  56.1291  56.2012
    56.4205  56.5058  56.8453  57.4340  57.8091  58.1799  59.0915  59.2564
    59.6455  59.7317  60.2481

          k = 0.4000 0.3333 0.4286 (  2646 PWs)   bands (ev):

   -60.5071 -60.5046 -51.1057 -51.0760 -51.0616 -50.9787 -50.9559 -50.9280
   -19.5534 -19.5467 -19.5432 -19.5340 -19.5292 -19.5204 -14.4629 -14.2189
   -14.1034 -13.5556 -13.4501 -13.3817 -13.3596 -13.2547 -13.2110 -13.1362
   -13.1108 -13.0488 -13.0336 -13.0149 -12.9887 -12.9744 -12.9705 -12.9587
    26.7094  26.7298  26.8869  26.9226  27.0265  27.1357  27.1738  27.1914
    27.3040  27.3824  29.3787  29.4493  29.8366  30.2643  30.3431  30.5434
    30.9651  31.2168  31.4889  31.7169  31.8722  31.9556  32.0817  32.2944
    32.7526  32.8062  32.8505  33.0769  33.3117  33.3988  33.7060  33.7654
    33.8109  33.9226  34.3432  34.3763  34.6386  34.8020  34.8434  35.0081
    36.4361  38.0446  38.6671  40.0612  40.2871  41.6957  42.2726  43.6394
    50.6895  51.3888  51.6964  52.6812  53.2082  54.1979  54.7641  54.8457
    54.9668  54.9972  55.2497  55.3981  55.6990  55.8074  56.0442  56.3664
    56.5147  56.8382  57.0689  57.1745  57.8658  58.0569  58.3067  58.9323
    59.4326  59.6856  59.7596

          k = 0.4000-0.5000 0.0000 (  2650 PWs)   bands (ev):

   -60.5131 -60.5128 -51.1877 -51.0802 -51.0286 -51.0228 -50.9628 -50.8548
   -19.5702 -19.5695 -19.5578 -19.5468 -19.5133 -19.5066 -15.0781 -14.2329
   -13.8572 -13.8100 -13.4358 -13.3720 -13.3408 -13.3111 -13.1853 -13.1528
   -13.1453 -13.0222 -13.0172 -13.0022 -12.9149 -12.9097 -12.9077 -12.4584
    26.3504  26.3684  26.7064  27.1222  27.1400  27.2273  27.3540  27.3660
    27.5004  27.9433  27.9842  29.3143  29.4523  29.8402  30.1009  30.3950
    30.8056  31.0784  31.4075  31.6984  31.7243  32.0834  32.1063  32.3805
    32.4213  32.4407  32.4490  32.4950  32.6931  33.7190  33.7807  33.8596
    33.9721  34.6137  34.8604  34.9410  35.2786  35.3613  35.5551  35.7049
    35.7353  37.3869  37.7709  38.3203  43.7102  45.7162  45.9792  46.2581
    48.6420  48.8103  49.8199  51.7560  52.0481  52.6714  53.3783  53.4615
    53.5162  53.5354  53.6730  53.9400  54.8604  55.5598  55.7754  56.1872
    56.3590  56.5315  56.6936  57.7437  58.2166  59.0651  59.1054  59.2140
    59.8361  59.8487  60.7256

          k = 0.4000-0.5000 0.1429 (  2650 PWs)   bands (ev):

   -60.5122 -60.5109 -51.1623 -51.0843 -51.0252 -51.0226 -50.9595 -50.8778
   -19.5607 -19.5607 -19.5548 -19.5462 -19.5177 -19.5131 -14.9629 -14.2287
   -13.8540 -13.8156 -13.4455 -13.3579 -13.3458 -13.3088 -13.1965 -13.1360
   -13.1350 -13.0268 -13.0124 -13.0010 -12.9305 -12.9288 -12.9150 -12.5832
    26.4285  26.4490  26.7629  27.1195  27.1318  27.2714  27.2825  27.3326
    27.6816  27.7850  27.8258  29.3436  29.3936  29.9545  30.2981  30.3734
    30.8506  31.1868  31.7181  31.7549  31.9925  31.9969  32.2687  32.3159
    32.4055  32.5398  32.5455  32.5627  32.7137  33.4626  33.7627  33.8173
    33.9709  34.3708  34.7223  34.7866  34.8951  34.9506  35.4177  36.1269
    36.2025  36.8823  38.2642  38.4696  42.8499  44.0592  45.1518  45.6005
    49.6199  49.7449  49.9655  51.9941  52.8317  52.8835  53.3303  53.7754
    53.8479  53.9380  54.2647  54.2793  55.1982  55.7685  56.0235  56.1858
    56.3747  56.4492  57.0134  57.2467  58.2306  58.3922  59.2302  59.4472
    59.7705  60.0873  60.2734

          k = 0.4000-0.5000 0.2857 (  2640 PWs)   bands (ev):

   -60.5009 -60.5006 -51.1160 -51.0785 -51.0132 -51.0128 -50.9502 -50.9113
   -19.5512 -19.5510 -19.5394 -19.5353 -19.5195 -19.5176 -14.6188 -14.2165
   -13.8350 -13.8185 -13.4452 -13.3596 -13.3593 -13.2284 -13.2077 -13.1148
   -13.1068 -13.0374 -13.0071 -12.9886 -12.9745 -12.9548 -12.9544 -12.9462
    26.6244  26.6394  26.8898  27.0097  27.0130  27.1576  27.2107  27.2822
    27.2940  27.4826  28.9124  29.5350  29.5860  30.1388  30.4194  30.5633
    30.9741  31.3817  31.7333  31.7534  31.9083  32.0810  32.3310  32.3703
    32.5014  32.6330  32.7065  32.8280  32.9519  33.2598  33.7713  33.8086
    33.9525  34.1312  34.1446  34.2835  34.6827  34.8930  35.1400  35.4488
    36.8590  36.8923  38.9594  39.2455  41.1111  41.8566  43.3774  43.7342
    50.7094  50.8046  51.3358  52.7945  53.0793  54.1187  54.3963  54.4816
    54.6978  54.7119  55.0898  55.4081  55.7114  55.7404  56.1296  56.2467
    56.5009  56.6819  56.8784  57.2889  57.6489  58.1160  58.8812  59.3602
    59.6933  59.7348  59.8182

          k = 0.4000-0.5000 0.4286 (  2640 PWs)   bands (ev):

   -60.4988 -60.4988 -51.0668 -51.0534 -51.0156 -51.0104 -50.9678 -50.9599
   -19.5438 -19.5437 -19.5314 -19.5310 -19.5277 -19.5269 -14.2158 -14.1069
   -13.8303 -13.8269 -13.5532 -13.4478 -13.3838 -13.3809 -13.1553 -13.1347
   -13.0868 -13.0813 -13.0433 -13.0303 -12.9921 -12.9858 -12.9846 -12.9811
    26.7908  26.7937  26.8894  26.8960  27.0222  27.0673  27.1259  27.1262
    27.2109  27.2364  29.9422  29.9676  30.2302  30.4135  30.5434  30.6408
    31.0621  31.1179  31.7092  31.7370  31.9930  32.0808  32.2863  32.3109
    32.4544  32.4640  32.5773  32.6443  33.3172  33.4267  33.5197  33.6640
    33.6874  33.8274  34.2808  34.3036  34.4873  34.5840  34.7703  34.8434
    37.9380  37.9793  39.3860  39.7444  39.9690  40.3936  41.6678  41.7595
    51.6175  51.6246  52.6857  53.0804  53.7694  54.0033  55.2655  55.3388
    55.6404  55.6512  55.6718  55.6888  56.0110  56.0354  56.3678  56.3846
    56.6186  56.6593  57.2919  57.3847  57.4347  57.6228  58.1815  58.1997
    59.3020  59.4266  59.5571

     the Fermi energy is    53.5913 ev

!    total energy              =   -2697.70716547 Ry
     Harris-Foulkes estimate   =   -2697.70717799 Ry
     estimated scf accuracy    <       0.00001557 Ry

     The total energy is the sum of the following terms:

     one-electron contribution =     -66.00679341 Ry
     hartree contribution      =     281.24655430 Ry
     xc contribution           =    -237.48673209 Ry
     ewald contribution        =   -2675.05790471 Ry
     smearing contrib. (-TS)   =      -0.40228957 Ry

     convergence has been achieved in   8 iterations

     Forces acting on atoms (Ry/au):

     atom    1 type  1   force =     0.00000000    0.00000000    0.00000000
     atom    2 type  1   force =     0.00000000    0.00000000    0.00000000
     atom    3 type  1   force =     0.00000000    0.00000000    0.00000000
     atom    4 type  1   force =     0.00000000    0.00000000    0.00000000
     atom    5 type  1   force =     0.00000000    0.00000000    0.00000000
     atom    6 type  1   force =     0.00000000    0.00000000    0.00000000
     atom    7 type  2   force =     0.00000000    0.00000000    0.00000000
     atom    8 type  2   force =     0.00000000    0.00000000    0.00000000

     Total force =     0.000000     Total SCF correction =     0.000000


     entering subroutine stress ...

          total   stress  (Ry/bohr**3)                   (kbar)     P= 6082.47
   0.04134780   0.00000000   0.00000000       6082.47      0.00      0.00
   0.00000000   0.04134780   0.00000000          0.00   6082.47      0.00
   0.00000000   0.00000000   0.04134780          0.00      0.00   6082.47


     BFGS Geometry Optimization

     number of scf cycles    =   1
     number of bfgs steps    =   0

     enthalpy new            =   -2697.7071654698 Ry

     new trust radius        =       0.5000000000 bohr
     new conv_thr            =       0.0001000000 Ry

     new unit-cell volume =    828.02266 a.u.^3 (   122.70030 Ang^3 )

CELL_PARAMETERS (alat=  8.53457320)
   1.100269143   0.000000000   0.000000000
   0.000000000   1.100269143   0.000000000
   0.000000000   0.000000000   1.100269143

ATOMIC_POSITIONS (crystal)
Cr       0.000000000   0.500000000   0.250000000
Cr       0.000000000   0.500000000   0.750000000
Cr       0.500000000   0.750000000   0.000000000
Cr       0.500000000   0.250000000   0.000000000
Cr       0.750000000   0.000000000   0.500000000
Cr       0.250000000   0.000000000   0.500000000
Si       0.500000000   0.500000000   0.500000000
Si       0.000000000   0.000000000   0.000000000



     Writing output data file Prototype-La-cP8-Cr3Si.save
     NEW-OLD atomic charge density approx. for the potential
     NEW k-points:
        k(    1) = (   0.0000000   0.0000000   0.0000000), wk =   0.0095238
        k(    2) = (   0.0000000   0.0000000   0.1298384), wk =   0.0190476
        k(    3) = (   0.0000000   0.0000000   0.2596767), wk =   0.0190476
        k(    4) = (   0.0000000   0.0000000   0.3895151), wk =   0.0190476
        k(    5) = (   0.0000000   0.1514781   0.0000000), wk =   0.0190476
        k(    6) = (   0.0000000   0.1514781   0.1298384), wk =   0.0380952
        k(    7) = (   0.0000000   0.1514781   0.2596767), wk =   0.0380952
        k(    8) = (   0.0000000   0.1514781   0.3895151), wk =   0.0380952
        k(    9) = (   0.0000000   0.3029562   0.0000000), wk =   0.0190476
        k(   10) = (   0.0000000   0.3029562   0.1298384), wk =   0.0380952
        k(   11) = (   0.0000000   0.3029562   0.2596767), wk =   0.0380952
        k(   12) = (   0.0000000   0.3029562   0.3895151), wk =   0.0380952
        k(   13) = (   0.0000000  -0.4544343   0.0000000), wk =   0.0095238
        k(   14) = (   0.0000000  -0.4544343   0.1298384), wk =   0.0190476
        k(   15) = (   0.0000000  -0.4544343   0.2596767), wk =   0.0190476
        k(   16) = (   0.0000000  -0.4544343   0.3895151), wk =   0.0190476
        k(   17) = (   0.1817737   0.0000000   0.0000000), wk =   0.0190476
        k(   18) = (   0.1817737   0.0000000   0.1298384), wk =   0.0380952
        k(   19) = (   0.1817737   0.0000000   0.2596767), wk =   0.0380952
        k(   20) = (   0.1817737   0.0000000   0.3895151), wk =   0.0380952
        k(   21) = (   0.1817737   0.1514781   0.0000000), wk =   0.0380952
        k(   22) = (   0.1817737   0.1514781   0.1298384), wk =   0.0761905
        k(   23) = (   0.1817737   0.1514781   0.2596767), wk =   0.0761905
        k(   24) = (   0.1817737   0.1514781   0.3895151), wk =   0.0761905
        k(   25) = (   0.1817737   0.3029562   0.0000000), wk =   0.0380952
        k(   26) = (   0.1817737   0.3029562   0.1298384), wk =   0.0761905
        k(   27) = (   0.1817737   0.3029562   0.2596767), wk =   0.0761905
        k(   28) = (   0.1817737   0.3029562   0.3895151), wk =   0.0761905
        k(   29) = (   0.1817737  -0.4544343   0.0000000), wk =   0.0190476
        k(   30) = (   0.1817737  -0.4544343   0.1298384), wk =   0.0380952
        k(   31) = (   0.1817737  -0.4544343   0.2596767), wk =   0.0380952
        k(   32) = (   0.1817737  -0.4544343   0.3895151), wk =   0.0380952
        k(   33) = (   0.3635474   0.0000000   0.0000000), wk =   0.0190476
        k(   34) = (   0.3635474   0.0000000   0.1298384), wk =   0.0380952
        k(   35) = (   0.3635474   0.0000000   0.2596767), wk =   0.0380952
        k(   36) = (   0.3635474   0.0000000   0.3895151), wk =   0.0380952
        k(   37) = (   0.3635474   0.1514781   0.0000000), wk =   0.0380952
        k(   38) = (   0.3635474   0.1514781   0.1298384), wk =   0.0761905
        k(   39) = (   0.3635474   0.1514781   0.2596767), wk =   0.0761905
        k(   40) = (   0.3635474   0.1514781   0.3895151), wk =   0.0761905
        k(   41) = (   0.3635474   0.3029562   0.0000000), wk =   0.0380952
        k(   42) = (   0.3635474   0.3029562   0.1298384), wk =   0.0761905
        k(   43) = (   0.3635474   0.3029562   0.2596767), wk =   0.0761905
        k(   44) = (   0.3635474   0.3029562   0.3895151), wk =   0.0761905
        k(   45) = (   0.3635474  -0.4544343   0.0000000), wk =   0.0190476
        k(   46) = (   0.3635474  -0.4544343   0.1298384), wk =   0.0380952
        k(   47) = (   0.3635474  -0.4544343   0.2596767), wk =   0.0380952
        k(   48) = (   0.3635474  -0.4544343   0.3895151), wk =   0.0380952

     total cpu time spent up to now is      284.6 secs

     Self-consistent Calculation

     iteration #  1     ecut=    40.00 Ry     beta=0.70
     CG style diagonalization
     c_bands:  1 eigenvalues not converged
     c_bands:  2 eigenvalues not converged
     c_bands:  1 eigenvalues not converged
     ethr =  1.00E-06,  avg # of iterations = 21.8

     total cpu time spent up to now is      393.3 secs

     total energy              =   -2687.29330826 Ry
     Harris-Foulkes estimate   =   -2724.82252542 Ry
     estimated scf accuracy    <      47.17308661 Ry

     iteration #  2     ecut=    40.00 Ry     beta=0.70
     CG style diagonalization
     ethr =  1.00E-02,  avg # of iterations =  4.0

     total cpu time spent up to now is      413.5 secs

     total energy              =   -2700.98891995 Ry
     Harris-Foulkes estimate   =   -2704.16627579 Ry
     estimated scf accuracy    <       4.57434597 Ry

     iteration #  3     ecut=    40.00 Ry     beta=0.70
     CG style diagonalization
     ethr =  2.57E-03,  avg # of iterations =  3.7

     total cpu time spent up to now is      432.5 secs

     total energy              =   -2702.16981773 Ry
     Harris-Foulkes estimate   =   -2702.17951785 Ry
     estimated scf accuracy    <       0.01473531 Ry

     iteration #  4     ecut=    40.00 Ry     beta=0.70
     CG style diagonalization
     c_bands:  1 eigenvalues not converged
     c_bands:  1 eigenvalues not converged
     c_bands:  1 eigenvalues not converged
     c_bands:  1 eigenvalues not converged
     c_bands:  1 eigenvalues not converged
     ethr =  8.28E-06,  avg # of iterations =  4.6

     total cpu time spent up to now is      456.2 secs

     total energy              =   -2702.18388421 Ry
     Harris-Foulkes estimate   =   -2702.18588945 Ry
     estimated scf accuracy    <       0.00359867 Ry

     iteration #  5     ecut=    40.00 Ry     beta=0.70
     CG style diagonalization
     c_bands:  1 eigenvalues not converged
     ethr =  2.02E-06,  avg # of iterations =  3.5

     total cpu time spent up to now is      474.9 secs

     total energy              =   -2702.18443766 Ry
     Harris-Foulkes estimate   =   -2702.18454118 Ry
     estimated scf accuracy    <       0.00016530 Ry

     iteration #  6     ecut=    40.00 Ry     beta=0.70
     CG style diagonalization
     c_bands:  1 eigenvalues not converged
     ethr =  9.29E-08,  avg # of iterations =  3.9

     total cpu time spent up to now is      494.6 secs

     End of self-consistent calculation

          k = 0.0000 0.0000 0.0000 (  2601 PWs)   bands (ev):

   -72.1324 -72.0165 -62.5285 -62.5285 -62.2188 -62.1310 -62.1310 -62.1310
   -31.6981 -31.6981 -31.6981 -31.6788 -31.6788 -31.6788 -25.7177 -25.7177
   -25.6843 -25.0130 -25.0130 -25.0130 -24.8843 -24.8843 -24.8843 -24.7939
   -24.7939 -24.7939 -24.7711 -24.7711 -24.7711 -24.6931 -24.6931 -24.6931
    16.0417  16.0417  16.4040  16.4040  16.4907  16.4907  16.4907  16.6867
    16.6867  16.6867  17.6815  18.0320  18.0320  18.7117  18.7117  18.7117
    19.5672  19.6545  19.6545  19.6545  19.8366  20.1401  21.0920  21.0920
    21.0920  21.2993  21.2993  21.7428  21.7428  21.7428  22.4685  22.4685
    22.7396  22.7396  22.7396  22.8497  22.8497  22.8497  22.9451  22.9451
    22.9451  29.4418  29.4418  29.4418  29.6400  30.2539  30.2539  34.7726
    36.2686  36.2686  36.5001  36.5001  36.5001  37.4507  37.4507  37.4507
    38.2924  38.2924  38.2924  40.6532  41.0101  41.0101  41.0101  42.2017
    42.2017  42.2017  44.6430  44.6430  44.6430  45.4127  46.2655  46.2655
    46.2655  47.6941  48.9692

          k = 0.0000 0.0000 0.1298 (  2657 PWs)   bands (ev):

   -72.2311 -72.1463 -62.5502 -62.4900 -62.3389 -62.3141 -62.3141 -62.2795
   -31.7226 -31.7226 -31.7163 -31.7015 -31.7015 -31.7000 -25.7602 -25.7532
   -25.6970 -25.0156 -25.0156 -25.0085 -24.8910 -24.8910 -24.8594 -24.8525
   -24.8525 -24.8415 -24.8223 -24.8223 -24.8182 -24.7535 -24.7122 -24.7122
    16.0252  16.0691  16.3592  16.3713  16.4442  16.4442  16.4745  16.6542
    16.6542  16.6650  17.7362  17.9970  18.1957  18.7116  18.7727  18.7727
    19.5005  19.7241  19.7241  19.8112  20.0366  20.2054  21.0430  21.0430
    21.0861  21.2706  21.2783  21.7643  21.7643  21.8259  22.3634  22.3738
    22.4333  22.4333  22.6745  22.7611  22.7611  22.8004  22.8927  23.2078
    23.2078  27.2998  29.6003  29.6003  29.8669  30.2965  32.2878  34.0708
    34.8491  35.6057  35.6157  35.6157  37.3401  37.3401  38.0451  38.4156
    38.7774  39.3225  39.3225  40.5554  40.6892  40.6892  40.9092  42.0911
    42.4470  42.4470  44.6234  44.6234  44.9230  45.3760  46.0833  46.5632
    46.5632  47.1613  48.2122

          k = 0.0000 0.0000 0.2597 (  2677 PWs)   bands (ev):

   -72.2534 -72.2073 -62.5461 -62.4892 -62.4196 -62.3539 -62.3460 -62.3460
   -31.7264 -31.7264 -31.7246 -31.7194 -31.7087 -31.7087 -25.7604 -25.7510
   -25.5691 -25.0062 -25.0062 -24.9935 -24.9538 -24.9049 -24.9049 -24.9018
   -24.8598 -24.8598 -24.8398 -24.8353 -24.8353 -24.8272 -24.7294 -24.7294
    16.0196  16.1336  16.3062  16.3120  16.3799  16.3799  16.4886  16.6105
    16.6105  16.6209  17.7632  17.9299  18.7397  18.8096  18.9369  18.9369
    19.2398  19.9400  19.9400  20.4006  20.4068  20.5871  20.9623  20.9623
    21.0445  21.2385  21.2491  21.7235  21.7235  21.9160  21.9579  21.9796
    21.9796  22.1910  22.2259  22.6725  22.6725  22.8933  22.9569  23.4999
    23.4999  25.1133  29.9503  30.0397  30.0397  30.3607  32.9292  33.3928
    34.2430  34.2430  34.8826  35.9503  37.5939  37.5939  38.8055  38.9806
    39.6797  39.9933  39.9933  40.5825  40.7621  40.7621  41.1420  41.4141
    43.0300  43.0300  44.6014  44.6014  45.3999  45.6082  46.2076  46.5006
    46.7435  46.7435  47.1842

          k = 0.0000 0.0000 0.3895 (  2658 PWs)   bands (ev):

   -72.1928 -72.1892 -62.4571 -62.4334 -62.4075 -62.3636 -62.3189 -62.3189
   -31.7150 -31.7150 -31.7109 -31.7109 -31.7091 -31.7015 -25.7584 -25.7528
   -25.3607 -25.1344 -25.0021 -25.0021 -24.9404 -24.9233 -24.8920 -24.8920
   -24.8408 -24.8408 -24.8314 -24.8283 -24.8283 -24.8248 -24.7278 -24.7278
    16.0555  16.1109  16.2993  16.3090  16.3290  16.3290  16.5257  16.5663
    16.5983  16.5983  17.7972  17.8592  18.8330  18.9926  19.0750  19.0750
    19.8110  20.2264  20.2264  20.6739  20.8860  20.9104  20.9227  20.9227
    21.0921  21.2016  21.2594  21.2900  21.2900  21.3919  21.9372  21.9372
    21.9660  22.0903  22.1163  22.5968  22.5968  22.9599  22.9794  23.2250
    23.6911  23.6911  30.1321  30.3207  30.5472  30.5472  32.3643  32.5699
    33.2268  33.2268  36.7389  37.0758  37.8821  37.8821  38.3049  39.3842
    39.5737  39.5737  39.8063  40.0377  40.9614  41.5177  41.6359  41.6359
    43.6246  43.6246  44.6634  44.6634  45.6830  46.3200  46.3456  46.3643
    46.3643  46.5015  47.1330

          k = 0.0000 0.1515 0.0000 (  2653 PWs)   bands (ev):

   -72.2167 -72.1462 -62.5221 -62.4803 -62.3415 -62.3155 -62.3155 -62.2728
   -31.7203 -31.7203 -31.7111 -31.7016 -31.7016 -31.6999 -25.7596 -25.7496
   -25.6837 -25.0092 -25.0092 -24.9941 -24.8918 -24.8918 -24.8632 -24.8509
   -24.8509 -24.8409 -24.8233 -24.8233 -24.8190 -24.7653 -24.7099 -24.7099
    16.0257  16.0812  16.3497  16.3625  16.4390  16.4390  16.4763  16.6476
    16.6476  16.6594  17.7452  17.9881  18.2657  18.7156  18.7960  18.7960
    19.4603  19.7517  19.7517  19.8926  20.1041  20.2315  21.0304  21.0304
    21.0831  21.2652  21.2764  21.7712  21.7712  21.8490  22.3358  22.3502
    22.3549  22.3549  22.5837  22.7515  22.7515  22.8168  22.9050  23.2597
    23.2597  26.9214  29.6578  29.6578  29.8788  30.3091  32.7017  33.8773
    34.5949  35.3851  35.3851  35.6238  37.3691  37.3691  38.3329  38.4641
    38.9694  39.5539  39.5539  40.5778  40.6014  40.6014  40.8725  42.0349
    42.5292  42.5292  44.6179  44.6179  45.0204  45.3704  46.0564  46.6345
    46.6345  47.0271  48.0383

          k = 0.0000 0.1515 0.1298 (  2662 PWs)   bands (ev):

   -72.2481 -72.1536 -62.5029 -62.4825 -62.3898 -62.3387 -62.3246 -62.3089
   -31.7275 -31.7244 -31.7174 -31.7150 -31.6994 -31.6937 -25.7617 -25.7156
   -25.6770 -25.0086 -25.0033 -24.9979 -24.9012 -24.8929 -24.8657 -24.8570
   -24.8545 -24.8390 -24.8311 -24.8298 -24.8119 -24.7984 -24.7634 -24.7183
    16.0473  16.0952  16.3258  16.3341  16.4217  16.4305  16.4551  16.6116
    16.6208  16.6488  17.8013  18.1229  18.2610  18.6334  18.8708  19.0157
    19.5370  19.6445  19.8246  20.0499  20.2526  20.3023  20.9732  20.9738
    21.0994  21.2782  21.2998  21.7870  21.8052  21.8571  22.1320  22.2829
    22.3193  22.3413  22.4400  22.6794  22.7632  22.8431  22.9037  23.0452
    23.3918  27.0368  27.5514  29.8484  30.1455  31.9909  32.5721  33.4681
    34.2764  34.6333  35.1120  36.7359  36.7400  37.1713  38.6933  38.8336
    39.2054  39.7671  39.8528  40.1096  40.7129  41.2255  41.3008  42.2876
    42.4299  42.8243  44.5528  44.7257  44.9572  45.1762  45.6784  46.4582
    47.0784  47.1021  47.4905

          k = 0.0000 0.1515 0.2597 (  2666 PWs)   bands (ev):

[...]
    24.6677  24.6677  27.2445  27.7494  28.6179  28.6179  28.7112  30.2435
    30.4746  30.4746  31.1498  31.1588  31.7660  32.6673  32.8958  32.8958
    35.6656  35.6656  35.8861  35.8915  35.8915  37.1024  37.1899  37.3236
    37.3236  38.1918  38.2648

          k = 0.3365 0.0000 0.1202 (  4462 PWs)   bands (ev):

   -81.1881 -81.1850 -71.1099 -71.1033 -71.1025 -71.0959 -71.0908 -71.0841
   -39.8947 -39.8904 -39.8890 -39.8853 -39.8816 -39.8723 -33.4630 -33.4406
   -33.2918 -33.1466 -33.0792 -33.0788 -33.0526 -33.0492 -33.0478 -33.0375
   -33.0336 -33.0254 -33.0178 -33.0167 -33.0122 -33.0077 -33.0060 -32.9824
     8.7924   8.8018   8.8498   8.8524   8.8944   8.8992   8.9441   8.9612
     8.9644   8.9767  11.4040  11.5754  12.2347  12.4018  12.4752  12.5188
    12.5978  13.0790  13.1254  13.3490  13.3858  13.4657  13.5197  13.5806
    13.6126  13.7012  13.7607  13.7948  13.8465  13.9214  13.9910  14.0857
    14.1607  14.2623  14.3686  14.4900  14.5613  14.6380  15.0137  15.2103
    15.2733  16.8050  20.5645  21.8195  22.1468  23.0666  23.4559  24.7374
    24.7499  25.9016  26.2569  27.5550  27.9042  28.1120  29.2915  29.9987
    31.1865  31.2202  31.4277  31.6096  32.1970  32.4117  32.9693  33.2788
    35.2047  35.4393  35.6686  35.7746  35.8457  36.8745  37.0002  37.4772
    37.6909  38.1121  38.2099

          k = 0.3365 0.0000 0.2404 (  4464 PWs)   bands (ev):

   -81.1952 -81.1814 -71.1158 -71.1075 -71.0990 -71.0974 -71.0941 -71.0838
   -39.8937 -39.8893 -39.8885 -39.8860 -39.8848 -39.8751 -33.4669 -33.3774
   -33.2994 -33.1519 -33.0738 -33.0730 -33.0675 -33.0562 -33.0522 -33.0499
   -33.0478 -33.0372 -33.0268 -33.0249 -33.0143 -33.0070 -33.0045 -32.9752
     8.7924   8.7995   8.8462   8.8481   8.8806   8.9008   8.9286   8.9293
     8.9612   8.9779  11.3958  12.0399  12.2901  12.4561  12.5900  12.6547
    12.7353  13.0241  13.1911  13.2720  13.3383  13.4704  13.5089  13.5758
    13.6447  13.6973  13.7267  13.7316  13.9006  13.9011  13.9594  14.1121
    14.1242  14.2007  14.3104  14.3608  14.5031  14.5074  14.5806  15.2380
    15.7426  17.2282  19.0204  20.3690  22.4713  23.5531  23.6698  24.8995
    24.9511  26.0994  26.9279  26.9504  27.9158  28.0837  28.7077  30.5660
    31.4488  32.1337  32.4241  32.4521  32.9998  33.1086  33.3841  33.5515
    33.8171  34.4633  34.8696  35.3124  36.3696  36.9208  37.1298  37.6695
    37.8109  38.0805  38.3686

          k = 0.3365 0.0000 0.3605 (  4458 PWs)   bands (ev):

   -81.1861 -81.1850 -71.1095 -71.1030 -71.1022 -71.0939 -71.0908 -71.0846
   -39.8925 -39.8908 -39.8846 -39.8828 -39.8807 -39.8779 -33.4645 -33.3027
   -33.2782 -33.1725 -33.1509 -33.0629 -33.0624 -33.0536 -33.0533 -33.0453
   -33.0430 -33.0361 -33.0353 -33.0316 -33.0166 -33.0057 -33.0022 -32.9646
     8.7889   8.7917   8.8492   8.8497   8.8641   8.9003   8.9069   8.9209
     8.9598   8.9797  11.3896  12.3765  12.4393  12.5875  12.7402  12.8595
    12.8946  13.0804  13.2248  13.2775  13.3229  13.3376  13.4787  13.5249
    13.5598  13.6629  13.6732  13.7152  13.7783  13.8454  14.0082  14.0225
    14.0373  14.1326  14.1403  14.1595  14.4217  14.4997  14.5325  15.2611
    16.4942  17.4311  18.2030  19.0994  23.0189  23.7423  24.2096  24.4065
    24.8295  25.1153  26.5271  27.0937  28.6916  29.1178  29.9510  30.3963
    31.5623  32.0374  32.5316  32.7470  33.0806  33.2360  33.2445  33.3437
    34.3293  34.5579  34.6691  35.1989  36.7310  36.9462  37.3442  37.5793
    37.6118  38.1048  38.1447

          k = 0.3365 0.1402 0.0000 (  4456 PWs)   bands (ev):

   -81.1860 -81.1804 -71.1090 -71.1033 -71.1012 -71.0934 -71.0838 -71.0807
   -39.8897 -39.8880 -39.8880 -39.8868 -39.8781 -39.8737 -33.4635 -33.4283
   -33.2923 -33.1484 -33.0783 -33.0769 -33.0535 -33.0474 -33.0457 -33.0366
   -33.0348 -33.0227 -33.0194 -33.0151 -33.0105 -33.0072 -32.9990 -32.9825
     8.7930   8.8021   8.8491   8.8518   8.8928   8.8997   8.9415   8.9566
     8.9636   8.9769  11.4029  11.6339  12.2397  12.4098  12.4984  12.5487
    12.5968  13.0719  13.1343  13.3495  13.3634  13.4663  13.5203  13.5924
    13.5998  13.7046  13.7639  13.7894  13.8546  13.9305  13.9745  14.0923
    14.1521  14.2788  14.3356  14.4888  14.5302  14.6299  14.9490  15.2144
    15.3323  16.8580  20.2966  21.5829  22.1765  23.1296  23.4755  24.7622
    25.0641  26.0625  26.1469  27.4398  27.7309  28.1420  29.0831  30.2485
    31.2346  31.4260  31.5800  31.6239  32.4200  32.4258  32.9955  33.3248
    35.0452  35.3332  35.6083  35.6251  35.9114  36.8637  36.9818  37.5760
    37.7231  38.0778  38.2334

          k = 0.3365 0.1402 0.1202 (  4443 PWs)   bands (ev):

   -81.1787 -81.1731 -71.1063 -71.0982 -71.0967 -71.0932 -71.0772 -71.0665
   -39.8883 -39.8856 -39.8854 -39.8778 -39.8738 -39.8732 -33.4363 -33.4225
   -33.2929 -33.1471 -33.0722 -33.0691 -33.0527 -33.0485 -33.0407 -33.0379
   -33.0242 -33.0225 -33.0176 -33.0159 -33.0067 -33.0020 -32.9972 -32.9947
     8.7966   8.8046   8.8436   8.8475   8.8951   8.8969   8.9410   8.9510
     8.9585   8.9628  11.5682  11.6318  12.2658  12.4496  12.5745  12.5876
    12.6027  13.0940  13.1152  13.3123  13.3927  13.4126  13.5620  13.5628
    13.6228  13.6702  13.8098  13.8280  13.8490  13.9430  13.9922  14.0232
    14.2153  14.2400  14.3361  14.3705  14.5019  14.5282  14.9602  15.0293
    15.5062  17.0145  20.3624  20.8951  21.6624  22.1715  24.7488  24.8781
    25.3531  25.9469  26.1740  26.7188  28.2824  29.0483  29.5082  30.0829
    30.5758  31.4159  31.5319  31.9757  32.5910  33.1331  33.2373  33.4862
    34.9189  35.2593  35.3670  35.5244  35.6901  36.6562  36.9146  37.6048
    37.7912  38.0325  38.1924

          k = 0.3365 0.1402 0.2404 (  4456 PWs)   bands (ev):

   -81.1860 -81.1823 -71.1168 -71.1046 -71.0997 -71.0960 -71.0823 -71.0792
   -39.8921 -39.8901 -39.8869 -39.8826 -39.8770 -39.8769 -33.4275 -33.3761
   -33.3001 -33.1517 -33.0707 -33.0689 -33.0655 -33.0569 -33.0501 -33.0437
   -33.0397 -33.0360 -33.0286 -33.0215 -33.0143 -33.0120 -33.0054 -33.0018
     8.7994   8.8052   8.8371   8.8406   8.8854   8.8986   8.9259   8.9284
     8.9461   8.9568  11.6233  12.0397  12.3458  12.5303  12.5986  12.7195
    12.7811  13.0462  13.1609  13.2618  13.3358  13.4545  13.5562  13.5706
    13.6392  13.6748  13.7763  13.8061  13.8603  13.9226  13.9692  14.0561
    14.1491  14.1854  14.2765  14.2898  14.3565  14.4446  14.5237  14.9836
    15.9767  17.4454  19.2041  20.5591  20.8940  22.1888  23.6178  24.6973
    25.6832  26.6843  26.9843  27.8788  28.4890  28.9288  29.5107  30.5484
    31.0729  31.7324  31.8984  32.1479  33.2969  33.5273  33.5692  33.8707
    34.0069  34.5450  34.7676  35.2517  35.7453  36.4293  36.9129  37.4901
    37.7394  37.9587  38.1661

          k = 0.3365 0.1402 0.3605 (  4469 PWs)   bands (ev):

   -81.1931 -81.1915 -71.1163 -71.1065 -71.1036 -71.1009 -71.0976 -71.0901
   -39.8949 -39.8921 -39.8899 -39.8849 -39.8825 -39.8822 -33.4351 -33.3062
   -33.2831 -33.1735 -33.1488 -33.0702 -33.0644 -33.0601 -33.0542 -33.0481
   -33.0439 -33.0392 -33.0346 -33.0325 -33.0179 -33.0139 -33.0071 -33.0042
     8.7956   8.7982   8.8396   8.8405   8.8697   8.8985   8.9051   8.9179
     8.9438   8.9566  11.6189  12.4488  12.5074  12.6202  12.7434  12.8893
    12.9275  13.0939  13.2115  13.2907  13.2959  13.4170  13.4995  13.5437
    13.5870  13.6375  13.6856  13.7104  13.7926  13.8133  13.9685  14.0145
    14.0468  14.1092  14.1433  14.1713  14.3129  14.3423  14.4187  15.0023
    16.7248  17.6628  18.3892  19.2964  21.5388  22.4605  22.8268  23.6828
    26.1961  26.7891  27.7067  28.2515  29.0992  29.3142  30.1574  30.5742
    31.7094  32.1489  32.3678  32.6183  32.7374  32.9563  33.3618  33.6474
    33.7132  34.0529  34.9559  35.1017  36.3145  36.4665  36.5955  37.1884
    37.7136  38.0115  38.0332

          k = 0.3365 0.2804 0.0000 (  4465 PWs)   bands (ev):

   -81.1942 -81.1843 -71.1209 -71.1045 -71.1021 -71.0973 -71.0947 -71.0823
   -39.8937 -39.8921 -39.8897 -39.8838 -39.8818 -39.8784 -33.4652 -33.3532
   -33.3012 -33.1527 -33.1012 -33.0705 -33.0702 -33.0591 -33.0529 -33.0505
   -33.0472 -33.0404 -33.0320 -33.0291 -33.0122 -33.0041 -33.0003 -32.9715
     8.7910   8.7973   8.8471   8.8481   8.8744   8.9009   8.9190   8.9248
     8.9607   8.9783  11.3931  12.2359  12.3247  12.4730  12.5934  12.7284
    12.8134  13.0106  13.2174  13.2486  13.3319  13.4363  13.5288  13.5719
    13.6539  13.6611  13.6985  13.7074  13.8784  13.9111  13.9693  14.0988
    14.1333  14.1758  14.2286  14.2972  14.3839  14.5044  14.5603  15.2473
    15.9631  17.4081  18.5733  19.9164  22.6362  23.7630  23.7705  24.6370
    24.9316  25.7636  26.6950  27.6369  27.7190  28.3029  29.1744  30.3296
    31.6729  32.4126  32.5324  32.8127  33.1231  33.1676  33.2480  33.6619
    33.9534  33.9599  34.6655  35.2259  36.5845  36.9011  37.3059  37.6081
    37.6837  38.2130  38.3182

          k = 0.3365 0.2804 0.1202 (  4460 PWs)   bands (ev):

   -81.1905 -81.1827 -71.1099 -71.1062 -71.1009 -71.0960 -71.0912 -71.0850
   -39.8932 -39.8910 -39.8897 -39.8836 -39.8779 -39.8765 -33.4388 -33.3457
   -33.3021 -33.1525 -33.1037 -33.0689 -33.0646 -33.0597 -33.0499 -33.0470
   -33.0396 -33.0362 -33.0316 -33.0293 -33.0158 -33.0085 -33.0050 -32.9921
     8.7966   8.8015   8.8401   8.8422   8.8783   8.9001   8.9172   8.9238
     8.9489   8.9620  11.5618  12.2418  12.3680  12.5292  12.6026  12.7667
    12.8450  13.0232  13.1951  13.2517  13.3214  13.4585  13.5542  13.5624
    13.6288  13.6692  13.7359  13.7645  13.8616  13.8972  13.9678  14.0699
    14.1340  14.1677  14.2245  14.3009  14.3161  14.3909  14.4635  15.0578
    16.1347  17.5717  18.7129  20.0597  21.3457  22.6221  23.4443  24.5179
    25.5599  26.4840  27.4230  28.0526  28.2689  28.9146  29.3832  30.4519
    31.5110  32.0537  32.1012  32.6711  33.1645  33.3513  33.4540  33.6498
    33.8575  34.1770  34.8294  35.2028  36.1520  36.5638  36.8968  37.5112
    37.7477  37.8954  38.2187

          k = 0.3365 0.2804 0.2404 (  4463 PWs)   bands (ev):

   -81.1914 -81.1869 -71.1115 -71.1078 -71.1031 -71.1026 -71.0906 -71.0848
   -39.8912 -39.8886 -39.8875 -39.8843 -39.8832 -39.8824 -33.3712 -33.3440
   -33.3001 -33.1516 -33.1029 -33.0759 -33.0641 -33.0640 -33.0590 -33.0523
   -33.0459 -33.0400 -33.0384 -33.0285 -33.0236 -33.0199 -33.0181 -33.0108
     8.8082   8.8114   8.8252   8.8274   8.8876   8.8950   8.9101   8.9197
     8.9253   8.9287  12.0388  12.2505  12.4914  12.5748  12.7363  12.8727
    12.9343  13.0483  13.1208  13.2822  13.3175  13.4726  13.5701  13.5744
    13.6468  13.6965  13.7456  13.7664  13.8290  13.8999  13.9698  14.0022
    14.0588  14.0952  14.1737  14.1921  14.2519  14.2950  14.3284  14.5381
    16.6124  18.0226  19.1120  19.8387  20.4557  21.1756  22.0573  23.3153
    27.3460  27.9739  28.2793  28.6653  29.6782  29.7660  30.2637  30.7241
    31.2443  31.4144  31.8530  32.3812  32.9778  33.4972  33.6293  33.6690
    34.2397  34.3463  34.5200  34.7805  34.9095  35.5450  36.0950  36.3483
    37.8653  37.9800  38.1154

          k = 0.3365 0.2804 0.3605 (  4464 PWs)   bands (ev):

   -81.1942 -81.1861 -71.1135 -71.1097 -71.1023 -71.1001 -71.0941 -71.0846
   -39.8915 -39.8891 -39.8882 -39.8863 -39.8838 -39.8800 -33.3396 -33.3005
   -33.2792 -33.1729 -33.1513 -33.1039 -33.0607 -33.0598 -33.0589 -33.0519
   -33.0469 -33.0402 -33.0396 -33.0321 -33.0301 -33.0203 -33.0184 -33.0123
     8.8102   8.8113   8.8220   8.8229   8.8833   8.8939   8.8992   8.9109
     8.9134   8.9162  12.2535  12.5662  12.6552  12.7249  12.8403  12.9814
    13.0468  13.0977  13.1441  13.3327  13.3385  13.4552  13.4976  13.5606
    13.6009  13.6171  13.6722  13.6864  13.7643  13.8004  13.8775  13.9486
    13.9762  14.0275  14.0812  14.1516  14.1698  14.2055  14.2644  14.3280
    17.3587  18.2870  18.9493  19.8505  19.8660  20.8075  21.2365  22.1480
    28.3945  28.9563  29.0328  29.6339  30.0719  30.4617  30.7751  31.1021
    31.6777  31.7831  32.1465  32.3644  32.6340  32.8470  33.2800  33.4484
    33.6804  33.9407  33.9854  34.5030  34.5797  34.9142  35.2461  35.6042
    37.9675  38.0310  38.3498

          k = 0.3365-0.4206 0.0000 (  4466 PWs)   bands (ev):

   -81.1907 -81.1904 -71.1097 -71.1040 -71.1019 -71.1015 -71.0972 -71.0924
   -39.8912 -39.8910 -39.8879 -39.8876 -39.8824 -39.8823 -33.4663 -33.3013
   -33.2295 -33.2281 -33.1517 -33.0627 -33.0622 -33.0595 -33.0540 -33.0477
   -33.0472 -33.0383 -33.0371 -33.0326 -33.0176 -33.0089 -33.0078 -32.9690
     8.7890   8.7893   8.8496   8.8500   8.8612   8.8980   8.9055   8.9197
     8.9594   8.9796  11.3887  12.4138  12.4220  12.5929  12.8954  12.8990
    12.9554  13.1260  13.2406  13.2818  13.3126  13.3225  13.4145  13.4236
    13.5502  13.6029  13.6777  13.7230  13.7300  13.8367  13.9983  14.0052
    14.0240  14.1240  14.1372  14.1578  14.4331  14.4934  14.5280  15.2645
    16.9497  16.9795  18.5296  18.6230  23.2430  23.5316  24.4589  24.5944
    24.6522  24.7886  26.6244  26.8202  29.0092  29.2424  30.5172  30.5813
    31.1920  31.6207  32.4298  32.6030  33.0593  33.2571  33.3473  33.4659
    34.2202  34.6820  35.0120  35.2665  36.6674  36.9452  37.1554  37.6119
    37.6690  38.1626  38.1724

          k = 0.3365-0.4206 0.1202 (  4466 PWs)   bands (ev):

   -81.1904 -81.1903 -71.1165 -71.1039 -71.1024 -71.1005 -71.0968 -71.0863
   -39.8894 -39.8893 -39.8885 -39.8885 -39.8831 -39.8829 -33.4441 -33.3057
   -33.2270 -33.2257 -33.1476 -33.0706 -33.0641 -33.0558 -33.0528 -33.0509
   -33.0437 -33.0379 -33.0359 -33.0309 -33.0150 -33.0112 -33.0056 -32.9973
     8.7940   8.7944   8.8427   8.8429   8.8654   8.8972   8.9049   8.9177
     8.9472   8.9624  11.5582  12.4640  12.4852  12.6104  12.9137  12.9153
    12.9709  13.1078  13.2605  13.2709  13.3493  13.3686  13.4177  13.4258
    13.5649  13.6040  13.6903  13.7070  13.7319  13.8050  13.9875  14.0015
    14.0202  14.1055  14.1473  14.1615  14.3565  14.3696  14.4391  15.0726
    17.1217  17.1483  18.6660  18.7749  22.1451  22.3062  23.4463  23.4649
    26.1870  26.2275  27.6234  27.7646  29.2783  29.3572  30.6545  30.7258
    31.2988  31.7463  32.4441  32.6509  32.6936  33.2764  33.3762  33.3899
    33.6887  34.6752  34.7416  35.0216  36.5106  36.7570  36.7831  37.3194
    37.6306  37.8988  38.1378

          k = 0.3365-0.4206 0.2404 (  4472 PWs)   bands (ev):

   -81.1949 -81.1944 -71.1157 -71.1144 -71.1039 -71.1034 -71.0956 -71.0932
   -39.8944 -39.8944 -39.8875 -39.8875 -39.8839 -39.8838 -33.3735 -33.3002
   -33.2301 -33.2296 -33.1491 -33.0782 -33.0646 -33.0639 -33.0578 -33.0544
   -33.0513 -33.0449 -33.0382 -33.0343 -33.0288 -33.0238 -33.0190 -33.0154
     8.8053   8.8057   8.8277   8.8280   8.8759   8.8932   8.9026   8.9121
     8.9199   8.9254  12.0390  12.5522  12.6599  12.7037  12.9726  12.9745
    13.0124  13.0974  13.2498  13.3245  13.3308  13.4008  13.4463  13.4797
    13.5826  13.5963  13.6374  13.6849  13.7589  13.7601  13.9157  14.0158
    14.0252  14.0336  14.0579  14.1624  14.1796  14.1940  14.3087  14.5462
    17.5985  17.6159  19.0839  19.2036  20.6841  20.8060  22.0578  22.1028
    28.0928  28.1746  28.7944  29.4612  29.7625  30.2469  31.0527  31.0911
    31.4617  31.8673  32.2074  32.3944  32.6669  32.8999  33.1537  33.2260
    33.8253  33.9984  34.0192  34.6997  35.1352  35.2114  35.7143  35.9865
    37.8565  38.0693  38.2676

          k = 0.3365-0.4206 0.3605 (  4478 PWs)   bands (ev):

   -81.1968 -81.1967 -71.1125 -71.1118 -71.1061 -71.1051 -71.1017 -71.1007
   -39.8946 -39.8946 -39.8889 -39.8887 -39.8862 -39.8861 -33.2962 -33.2819
   -33.2321 -33.2316 -33.1748 -33.1526 -33.0614 -33.0610 -33.0512 -33.0505
   -33.0468 -33.0424 -33.0414 -33.0394 -33.0385 -33.0302 -33.0266 -33.0263
     8.8123   8.8123   8.8178   8.8179   8.8849   8.8892   8.8972   8.9001
     8.9041   8.9041  12.5837  12.7184  12.8722  12.8902  13.0132  13.0224
    13.1279  13.1633  13.2020  13.2316  13.3799  13.4118  13.4397  13.4466
    13.5567  13.5717  13.5931  13.6096  13.7191  13.7462  13.7561  13.8057
    13.8778  13.9495  14.0850  14.1050  14.1503  14.1538  14.1849  14.2104
    18.3215  18.3243  19.3894  19.4590  19.8845  19.9448  20.8632  20.8825
    29.5935  29.6358  30.0313  30.3323  30.7030  31.0521  31.5308  31.5889
    31.6618  31.8523  32.3330  32.4524  32.5436  32.7097  32.8207  32.9225
    33.2325  33.3308  33.7214  33.8671  33.9729  34.0291  34.5343  34.6341
    38.2063  38.2341  38.5307

     the Fermi energy is    31.0427 ev

!    total energy              =   -2708.64692107 Ry
     Harris-Foulkes estimate   =   -2708.64692167 Ry
     estimated scf accuracy    <       0.00000072 Ry

     The total energy is the sum of the following terms:

     one-electron contribution =    -684.07872777 Ry
     hartree contribution      =     454.78013499 Ry
     xc contribution           =    -228.73017762 Ry
     ewald contribution        =   -2250.34376354 Ry
     smearing contrib. (-TS)   =      -0.27438713 Ry

     convergence has been achieved in  10 iterations

     Forces acting on atoms (Ry/au):

     atom    1 type  1   force =     0.00000000    0.00000000    0.00000000
     atom    2 type  1   force =     0.00000000    0.00000000    0.00000000
     atom    3 type  1   force =     0.00000000    0.00000000    0.00000000
     atom    4 type  1   force =     0.00000000    0.00000000    0.00000000
     atom    5 type  1   force =     0.00000000    0.00000000    0.00000000
     atom    6 type  1   force =     0.00000000    0.00000000    0.00000000
     atom    7 type  2   force =     0.00000000    0.00000000    0.00000000
     atom    8 type  2   force =     0.00000000    0.00000000    0.00000000

     Total force =     0.000000     Total SCF correction =     0.000000


     entering subroutine stress ...

          total   stress  (Ry/bohr**3)                   (kbar)     P=  349.27
   0.00237431   0.00000000   0.00000000        349.27      0.00      0.00
   0.00000000   0.00237431   0.00000000          0.00    349.27      0.00
   0.00000000   0.00000000   0.00237431          0.00      0.00    349.27


     Writing output data file Prototype-La-cP8-Cr3Si.save
 
     init_run     :      8.67s CPU     11.82s WALL (       2 calls)
     electrons    :   1831.37s CPU   2184.00s WALL (       5 calls)
     update_pot   :      1.40s CPU      1.42s WALL (       3 calls)
     forces       :      6.81s CPU      7.43s WALL (       5 calls)
     stress       :     18.63s CPU     19.23s WALL (       5 calls)

     Called by init_run:
     wfcinit      :      8.15s CPU     10.59s WALL (       2 calls)
     potinit      :      0.20s CPU      0.20s WALL (       2 calls)

     Called by electrons:
     c_bands      :   1785.76s CPU   2105.09s WALL (      41 calls)
     sum_band     :     45.35s CPU     60.14s WALL (      41 calls)
     v_of_rho     :      0.05s CPU      0.06s WALL (      46 calls)
     mix_rho      :      0.04s CPU      0.06s WALL (      41 calls)

     Called by c_bands:
     init_us_2    :      2.68s CPU      3.55s WALL (    4512 calls)
     ccgdiagg     :   1614.80s CPU   1884.49s WALL (    2399 calls)
     wfcrot       :    175.85s CPU    225.14s WALL (    2447 calls)

     Called by *cgdiagg:
     h_psi        :   1174.60s CPU   1450.98s WALL ( 1339275 calls)
     cdiaghg      :     12.51s CPU     13.61s WALL (    2447 calls)

     Called by h_psi:
     add_vuspsi   :    139.54s CPU    172.73s WALL ( 1339275 calls)

     General routines
     calbec       :    390.71s CPU    409.94s WALL ( 2676583 calls)
     fft          :      0.09s CPU      0.11s WALL (     207 calls)
     fftw         :    769.37s CPU    957.31s WALL ( 3407890 calls)
     davcio       :      2.23s CPU      5.22s WALL (    6480 calls)
 
     Parallel routines
     fft_scatter  :    304.62s CPU    376.29s WALL ( 3408097 calls)
 
     PWSCF        : 31m 7.57s CPU    37m 7.37s WALL

 
   This run was terminated on:  23:24:24  22Mar2018            

=------------------------------------------------------------------------------=
   JOB DONE.
=------------------------------------------------------------------------------=
