
     Program PWSCF v.5.0.2 starts on 22Mar2018 at 18:45:15 

     This program is part of the open-source Quantum ESPRESSO suite
     for quantum simulation of materials; please cite
         "P. Giannozzi et al., J. Phys.:Condens. Matter 21 395502 (2009);
          URL http://www.quantum-espresso.org", 
     in publications or presentations arising from this work. More details at
     http://www.quantum-espresso.org/quote.php

     Parallel version (MPI), running on     4 processors
     R & G space division:  proc/nbgrp/npool/nimage =       4

     Current dimensions of program PWSCF are:
     Max number of different atomic species (ntypx) = 10
     Max number of k-points (npk) =  40000
     Max angular momentum in pseudopotentials (lmaxx) =  3
     Waiting for input...
     Reading input from standard input

     Subspace diagonalization in iterative solution of the eigenvalue problem:
     a serial algorithm will be used

 
     Parallelization info
     --------------------
     sticks:   dense  smooth     PW     G-vecs:    dense   smooth      PW
     Min         233     233     69                 5311     5311     851
     Max         234     234     70                 5314     5314     854
     Sum         933     933    277                21247    21247    3407
 


     bravais-lattice index     =            0
     lattice parameter (alat)  =       8.5346  a.u.
     unit-cell volume          =     621.6493 (a.u.)^3
     number of atoms/cell      =            8
     number of atomic types    =            2
     number of electrons       =       146.00
     number of Kohn-Sham states=           88
     kinetic-energy cutoff     =      40.0000  Ry
     charge density cutoff     =     160.0000  Ry
     convergence threshold     =      1.0E-04
     mixing beta               =       0.7000
     number of iterations used =            8  plain     mixing
     Exchange-correlation      = SLA-PZ-NOGX-NOGC ( 1 1 0 0 0)
     EXX-fraction              =        0.00
     nstep                     =           50


     celldm(1)=   8.534573  celldm(2)=   0.000000  celldm(3)=   0.000000
     celldm(4)=   0.000000  celldm(5)=   0.000000  celldm(6)=   0.000000

     crystal axes: (cart. coord. in units of alat)
               a(1) = (   1.000000   0.000000   0.000000 )  
               a(2) = (   0.000000   1.000000   0.000000 )  
               a(3) = (   0.000000   0.000000   1.000000 )  

     reciprocal axes: (cart. coord. in units 2 pi/alat)
               b(1) = (  1.000000  0.000000  0.000000 )  
               b(2) = (  0.000000  1.000000  0.000000 )  
               b(3) = (  0.000000  0.000000  1.000000 )  


     PseudoPot. # 1 for Sm read from file:
     /home/cwx6513/pp.La/Sm.UPF
     MD5 check sum: 5079e8b144a06bfcdbc14fb02b96ab09
     Pseudo is Norm-conserving, Zval = 16.0
     Generated in analytical, separable form
     Using radial grid of 1259 points,  6 beta functions with: 
                l(1) =   0
                l(2) =   0
                l(3) =   1
                l(4) =   1
                l(5) =   2
                l(6) =   3

     PseudoPot. # 2 for Lu read from file:
     /home/cwx6513/pp.La/La.UPF
     MD5 check sum: 4fc038260c66a0bf25fb4835376efb80
     Pseudo is Norm-conserving, Zval = 25.0
     Generated in analytical, separable form
     Using radial grid of 1271 points,  6 beta functions with: 
                l(1) =   0
                l(2) =   0
                l(3) =   1
                l(4) =   1
                l(5) =   2
                l(6) =   3

     atomic species   valence    mass     pseudopotential
        Cr            16.00    51.99610     Sm( 1.00)
        Si            25.00    28.08550     Lu( 1.00)

     48 Sym. Ops., with inversion, found (24 have fractional translation)



   Cartesian axes

     site n.     atom                  positions (alat units)
         1           Cr  tau(   1) = (   0.0000000   0.5000000   0.2500000  )
         2           Cr  tau(   2) = (   0.0000000   0.5000000   0.7500000  )
         3           Cr  tau(   3) = (   0.5000000   0.7500000   0.0000000  )
         4           Cr  tau(   4) = (   0.5000000   0.2500000   0.0000000  )
         5           Cr  tau(   5) = (   0.7500000   0.0000000   0.5000000  )
         6           Cr  tau(   6) = (   0.2500000   0.0000000   0.5000000  )
         7           Si  tau(   7) = (   0.5000000   0.5000000   0.5000000  )
         8           Si  tau(   8) = (   0.0000000   0.0000000   0.0000000  )

     number of k points=    48  gaussian smearing, width (Ry)=  0.1000
                       cart. coord. in units 2pi/alat
        k(    1) = (   0.0000000   0.0000000   0.0000000), wk =   0.0095238
        k(    2) = (   0.0000000   0.0000000   0.1428571), wk =   0.0190476
        k(    3) = (   0.0000000   0.0000000   0.2857143), wk =   0.0190476
        k(    4) = (   0.0000000   0.0000000   0.4285714), wk =   0.0190476
        k(    5) = (   0.0000000   0.1666667   0.0000000), wk =   0.0190476
        k(    6) = (   0.0000000   0.1666667   0.1428571), wk =   0.0380952
        k(    7) = (   0.0000000   0.1666667   0.2857143), wk =   0.0380952
        k(    8) = (   0.0000000   0.1666667   0.4285714), wk =   0.0380952
        k(    9) = (   0.0000000   0.3333333   0.0000000), wk =   0.0190476
        k(   10) = (   0.0000000   0.3333333   0.1428571), wk =   0.0380952
        k(   11) = (   0.0000000   0.3333333   0.2857143), wk =   0.0380952
        k(   12) = (   0.0000000   0.3333333   0.4285714), wk =   0.0380952
        k(   13) = (   0.0000000  -0.5000000   0.0000000), wk =   0.0095238
        k(   14) = (   0.0000000  -0.5000000   0.1428571), wk =   0.0190476
        k(   15) = (   0.0000000  -0.5000000   0.2857143), wk =   0.0190476
        k(   16) = (   0.0000000  -0.5000000   0.4285714), wk =   0.0190476
        k(   17) = (   0.2000000   0.0000000   0.0000000), wk =   0.0190476
        k(   18) = (   0.2000000   0.0000000   0.1428571), wk =   0.0380952
        k(   19) = (   0.2000000   0.0000000   0.2857143), wk =   0.0380952
        k(   20) = (   0.2000000   0.0000000   0.4285714), wk =   0.0380952
        k(   21) = (   0.2000000   0.1666667   0.0000000), wk =   0.0380952
        k(   22) = (   0.2000000   0.1666667   0.1428571), wk =   0.0761905
        k(   23) = (   0.2000000   0.1666667   0.2857143), wk =   0.0761905
        k(   24) = (   0.2000000   0.1666667   0.4285714), wk =   0.0761905
        k(   25) = (   0.2000000   0.3333333   0.0000000), wk =   0.0380952
        k(   26) = (   0.2000000   0.3333333   0.1428571), wk =   0.0761905
        k(   27) = (   0.2000000   0.3333333   0.2857143), wk =   0.0761905
        k(   28) = (   0.2000000   0.3333333   0.4285714), wk =   0.0761905
        k(   29) = (   0.2000000  -0.5000000   0.0000000), wk =   0.0190476
        k(   30) = (   0.2000000  -0.5000000   0.1428571), wk =   0.0380952
        k(   31) = (   0.2000000  -0.5000000   0.2857143), wk =   0.0380952
        k(   32) = (   0.2000000  -0.5000000   0.4285714), wk =   0.0380952
        k(   33) = (   0.4000000   0.0000000   0.0000000), wk =   0.0190476
        k(   34) = (   0.4000000   0.0000000   0.1428571), wk =   0.0380952
        k(   35) = (   0.4000000   0.0000000   0.2857143), wk =   0.0380952
        k(   36) = (   0.4000000   0.0000000   0.4285714), wk =   0.0380952
        k(   37) = (   0.4000000   0.1666667   0.0000000), wk =   0.0380952
        k(   38) = (   0.4000000   0.1666667   0.1428571), wk =   0.0761905
        k(   39) = (   0.4000000   0.1666667   0.2857143), wk =   0.0761905
        k(   40) = (   0.4000000   0.1666667   0.4285714), wk =   0.0761905
        k(   41) = (   0.4000000   0.3333333   0.0000000), wk =   0.0380952
        k(   42) = (   0.4000000   0.3333333   0.1428571), wk =   0.0761905
        k(   43) = (   0.4000000   0.3333333   0.2857143), wk =   0.0761905
        k(   44) = (   0.4000000   0.3333333   0.4285714), wk =   0.0761905
        k(   45) = (   0.4000000  -0.5000000   0.0000000), wk =   0.0190476
        k(   46) = (   0.4000000  -0.5000000   0.1428571), wk =   0.0380952
        k(   47) = (   0.4000000  -0.5000000   0.2857143), wk =   0.0380952
        k(   48) = (   0.4000000  -0.5000000   0.4285714), wk =   0.0380952

     Dense  grid:    21247 G-vectors     FFT dimensions: (  36,  36,  36)

     Largest allocated arrays     est. size (Mb)     dimensions
        Kohn-Sham Wavefunctions         0.92 Mb     (    683,   88)
        NL pseudopotentials             1.67 Mb     (    683,  160)
        Each V/rho on FFT grid          0.18 Mb     (  11664)
        Each G-vector array             0.04 Mb     (   5314)
        G-vector shells                 0.04 Mb     (   5314)
     Largest temporary arrays     est. size (Mb)     dimensions
        Each subspace H/S matrix        0.12 Mb     (  88,  88)
        Each <psi_i|beta_j> matrix      0.21 Mb     (    160,   88)
        Arrays for rho mixing           1.42 Mb     (  11664,   8)

     Initial potential from superposition of free atoms

     Starting from uniform charge
     Starting wfc are    0 randomized atomic wfcs

     total cpu time spent up to now is        3.9 secs

     Self-consistent Calculation

     iteration #  1     ecut=    40.00 Ry     beta=0.70
     CG style diagonalization
     c_bands:  3 eigenvalues not converged
     c_bands:  4 eigenvalues not converged
     c_bands:  5 eigenvalues not converged
     c_bands:  2 eigenvalues not converged
     c_bands:  2 eigenvalues not converged
     c_bands:  3 eigenvalues not converged
     c_bands:  1 eigenvalues not converged
     c_bands:  4 eigenvalues not converged
     c_bands:  1 eigenvalues not converged
     c_bands:  1 eigenvalues not converged
     c_bands:  5 eigenvalues not converged
     c_bands:  5 eigenvalues not converged
     c_bands:  1 eigenvalues not converged
     c_bands:  4 eigenvalues not converged
     c_bands:  5 eigenvalues not converged
     c_bands:  4 eigenvalues not converged
     c_bands:  2 eigenvalues not converged
     c_bands:  3 eigenvalues not converged
     c_bands:  2 eigenvalues not converged
     c_bands:  5 eigenvalues not converged
     c_bands:  2 eigenvalues not converged
     c_bands:  1 eigenvalues not converged
     c_bands:  5 eigenvalues not converged
     c_bands:  4 eigenvalues not converged
     c_bands:  3 eigenvalues not converged
     c_bands:  1 eigenvalues not converged
     c_bands:  1 eigenvalues not converged
     c_bands:  2 eigenvalues not converged
     c_bands:  2 eigenvalues not converged
     c_bands:  3 eigenvalues not converged
     c_bands:  1 eigenvalues not converged
     c_bands:  2 eigenvalues not converged
     c_bands:  1 eigenvalues not converged
     c_bands:  4 eigenvalues not converged
     ethr =  1.00E-02,  avg # of iterations = 13.2

     total cpu time spent up to now is       54.2 secs

     total energy              =   -1126.34129123 Ry
     Harris-Foulkes estimate   =   -2252.86584596 Ry
     estimated scf accuracy    <    1335.35694337 Ry

     iteration #  2     ecut=    40.00 Ry     beta=0.70
     CG style diagonalization
     c_bands:  2 eigenvalues not converged
     c_bands:  3 eigenvalues not converged
     c_bands:  5 eigenvalues not converged
     c_bands:  2 eigenvalues not converged
     c_bands:  1 eigenvalues not converged
     c_bands:  2 eigenvalues not converged
     c_bands:  1 eigenvalues not converged
     c_bands:  1 eigenvalues not converged
     c_bands:  2 eigenvalues not converged
     c_bands:  2 eigenvalues not converged
     c_bands:  2 eigenvalues not converged
     c_bands:  4 eigenvalues not converged
     c_bands:  1 eigenvalues not converged
     c_bands:  3 eigenvalues not converged
     c_bands:  2 eigenvalues not converged
     c_bands:  5 eigenvalues not converged
     c_bands:  4 eigenvalues not converged
     c_bands:  3 eigenvalues not converged
     c_bands:  3 eigenvalues not converged
     c_bands:  2 eigenvalues not converged
     c_bands:  1 eigenvalues not converged
     c_bands:  2 eigenvalues not converged
     c_bands:  4 eigenvalues not converged
     c_bands:  4 eigenvalues not converged
     c_bands:  1 eigenvalues not converged
     c_bands:  4 eigenvalues not converged
     c_bands:  2 eigenvalues not converged
     c_bands:  1 eigenvalues not converged
     c_bands:  5 eigenvalues not converged
     c_bands:  2 eigenvalues not converged
     c_bands:  2 eigenvalues not converged
     c_bands:  3 eigenvalues not converged
     c_bands:  2 eigenvalues not converged
     c_bands:  2 eigenvalues not converged
     c_bands:  2 eigenvalues not converged
     c_bands:  2 eigenvalues not converged
     c_bands:  1 eigenvalues not converged
     c_bands:  3 eigenvalues not converged
     c_bands:  1 eigenvalues not converged
     c_bands:  2 eigenvalues not converged
     ethr =  1.00E-02,  avg # of iterations = 11.4

     total cpu time spent up to now is       98.1 secs

     total energy              =   -1630.77061719 Ry
     Harris-Foulkes estimate   =   -2368.54769885 Ry
     estimated scf accuracy    <    1329.60241996 Ry

     iteration #  3     ecut=    40.00 Ry     beta=0.70
     CG style diagonalization
     c_bands:  1 eigenvalues not converged
     c_bands:  1 eigenvalues not converged
     c_bands:  1 eigenvalues not converged
     c_bands:  1 eigenvalues not converged
     c_bands:  1 eigenvalues not converged
     c_bands:  1 eigenvalues not converged
     ethr =  1.00E-02,  avg # of iterations = 10.8

     total cpu time spent up to now is      140.0 secs

     total energy              =   -1807.51919063 Ry
     Harris-Foulkes estimate   =   -1819.23615595 Ry
     estimated scf accuracy    <      22.27038929 Ry

     iteration #  4     ecut=    40.00 Ry     beta=0.70
     CG style diagonalization
     ethr =  1.00E-02,  avg # of iterations =  3.4

     total cpu time spent up to now is      152.4 secs

     total energy              =   -1808.79692002 Ry
     Harris-Foulkes estimate   =   -1810.70130883 Ry
     estimated scf accuracy    <       2.90484913 Ry

     iteration #  5     ecut=    40.00 Ry     beta=0.70
     CG style diagonalization
     ethr =  1.99E-03,  avg # of iterations =  4.3

     total cpu time spent up to now is      169.3 secs

     total energy              =   -1809.83682459 Ry
     Harris-Foulkes estimate   =   -1809.94774846 Ry
     estimated scf accuracy    <       0.19100618 Ry

     iteration #  6     ecut=    40.00 Ry     beta=0.70
     CG style diagonalization
     c_bands:  2 eigenvalues not converged
     c_bands:  1 eigenvalues not converged
     c_bands:  2 eigenvalues not converged
     c_bands:  1 eigenvalues not converged
     c_bands:  1 eigenvalues not converged
     c_bands:  1 eigenvalues not converged
     c_bands:  1 eigenvalues not converged
     c_bands:  1 eigenvalues not converged
     c_bands:  1 eigenvalues not converged
     c_bands:  2 eigenvalues not converged
     c_bands:  2 eigenvalues not converged
     c_bands:  2 eigenvalues not converged
     c_bands:  2 eigenvalues not converged
     c_bands:  1 eigenvalues not converged
     ethr =  1.31E-04,  avg # of iterations =  4.6

     total cpu time spent up to now is      187.6 secs

     total energy              =   -1809.90093112 Ry
     Harris-Foulkes estimate   =   -1809.90165984 Ry
     estimated scf accuracy    <       0.00201973 Ry

     iteration #  7     ecut=    40.00 Ry     beta=0.70
     CG style diagonalization
     c_bands:  3 eigenvalues not converged
     c_bands:  1 eigenvalues not converged
     c_bands:  1 eigenvalues not converged
     c_bands:  2 eigenvalues not converged
     c_bands:  1 eigenvalues not converged
     c_bands:  2 eigenvalues not converged
     c_bands:  1 eigenvalues not converged
     c_bands:  1 eigenvalues not converged
     c_bands:  1 eigenvalues not converged
     c_bands:  1 eigenvalues not converged
     c_bands:  1 eigenvalues not converged
     c_bands:  4 eigenvalues not converged
     c_bands:  2 eigenvalues not converged
     c_bands:  1 eigenvalues not converged
     c_bands:  1 eigenvalues not converged
     c_bands:  1 eigenvalues not converged
     c_bands:  1 eigenvalues not converged
     c_bands:  2 eigenvalues not converged
     c_bands:  1 eigenvalues not converged
     c_bands:  1 eigenvalues not converged
     c_bands:  1 eigenvalues not converged
     c_bands:  1 eigenvalues not converged
     c_bands:  2 eigenvalues not converged
     c_bands:  2 eigenvalues not converged
     c_bands:  2 eigenvalues not converged
     ethr =  1.38E-06,  avg # of iterations =  5.9

     total cpu time spent up to now is      210.7 secs

     total energy              =   -1809.90365556 Ry
     Harris-Foulkes estimate   =   -1809.90380903 Ry
     estimated scf accuracy    <       0.00025155 Ry

     iteration #  8     ecut=    40.00 Ry     beta=0.70
     CG style diagonalization
     c_bands:  1 eigenvalues not converged
     c_bands:  1 eigenvalues not converged
     c_bands:  1 eigenvalues not converged
     c_bands:  1 eigenvalues not converged
     c_bands:  1 eigenvalues not converged
     ethr =  1.72E-07,  avg # of iterations =  3.9

     total cpu time spent up to now is      225.1 secs

     End of self-consistent calculation

          k = 0.0000 0.0000 0.0000 (  2601 PWs)   bands (ev):

   -90.2321 -90.1135 -45.8965 -45.8965 -45.8965 -45.8804 -45.8804 -45.8804
   -13.3869 -12.6136 -12.6136 -11.0045 -11.0045 -11.0045   7.3859   7.3859
     8.2979  10.3093  10.3093  10.3093  11.4156  11.4156  11.4156  12.4350
    12.4350  12.4350  12.8302  12.8302  12.8302  14.1152  14.1152  14.5114
    14.5114  15.3622  15.3622  15.3622  15.5672  15.5672  15.5672  16.3755
    16.3755  16.3755  28.3006  28.6813  33.6307  33.6307  33.6307  34.8919
    34.8919  34.8919  36.4421  37.1355  37.2501  37.2501  40.3817  40.3817
    40.3817  40.8103  40.8103  41.1979  41.1979  41.1979  43.8572  43.8572
    43.8572  46.5812  47.8970  47.8970  48.4660  48.4660  48.4660  48.8098
    48.8098  48.8098  49.5092  49.5092  49.5092  50.0736  50.0736  50.0736
    51.8907  51.8908  52.0787  53.0749  53.0750  53.0749  53.6966  54.3135

          k = 0.0000 0.0000 0.1429 (  2657 PWs)   bands (ev):

   -90.3209 -90.2442 -45.9169 -45.9169 -45.9127 -45.8992 -45.8992 -45.8985
   -13.3386 -12.6440 -12.5581 -11.1119 -11.0074 -11.0074   7.4196   7.5494
     8.4100  10.2301  10.2301  10.4071  11.4558  11.5609  11.5609  12.3766
    12.4289  12.4803  12.4803  12.8635  12.8635  14.1355  14.2009  14.5333
    14.6104  15.1999  15.1999  15.3644  15.4579  15.4579  15.5477  15.8699
    16.4142  16.4142  28.4951  28.5995  33.8560  33.8560  34.2538  34.4512
    35.0913  35.0913  36.6744  37.1623  37.2131  38.0590  39.5632  39.5632
    40.0417  40.2943  40.8172  41.2554  41.8146  41.8146  43.8625  43.8625
    44.1118  46.9962  47.0054  47.1452  47.3499  47.3499  48.1346  48.1346
    48.7763  49.0494  49.0794  49.4882  49.6029  49.6029  50.7497  50.7498
    51.8344  52.0588  53.1369  53.1370  53.4090  53.4163  53.7334  54.1047

          k = 0.0000 0.0000 0.2857 (  2677 PWs)   bands (ev):

   -90.3424 -90.3010 -45.9198 -45.9196 -45.9196 -45.9159 -45.9050 -45.9050
   -13.2081 -12.7316 -12.3907 -11.3913 -11.0101 -11.0101   7.5145   7.6988
     9.1153  10.0975  10.0975  10.6335  11.5879  11.7320  11.8587  11.8587
    12.2249  12.6096  12.6096  12.9906  12.9906  13.8337  14.2066  14.6144
    14.6293  14.7366  14.7366  15.0604  15.3200  15.3200  15.3892  15.5164
    16.4613  16.4613  28.5489  28.9223  33.9551  34.4190  34.4190  35.6106
    35.6106  35.8673  37.0852  37.1414  37.3267  38.4294  38.7377  38.7377
    39.9587  40.1204  40.7155  41.0642  41.5900  41.5900  43.7273  43.8267
    43.8267  45.9637  46.2496  46.6519  46.6519  47.6680  47.7061  47.7061
    48.0586  48.7604  48.7604  48.8566  49.5557  49.9869  51.3995  51.6263
    51.6264  52.8942  52.9546  52.9547  53.6175  54.3655  54.3692  54.3962

          k = 0.0000 0.0000 0.4286 (  2658 PWs)   bands (ev):

   -90.2867 -90.2833 -45.9106 -45.9106 -45.9078 -45.9071 -45.9071 -45.9015
   -13.0360 -12.8669 -12.1136 -11.7570 -11.0116 -11.0116   7.6169   7.6850
    10.0147  10.0147  10.3690  11.0298  11.1232  11.7853  12.0121  12.0584
    12.0584  12.3590  12.7079  12.7079  13.3073  13.3073  14.1927  14.1927
    14.3089  14.4094  14.8089  14.9725  15.2266  15.2266  15.4295  15.4759
    16.4801  16.4801  28.7228  28.9989  34.5161  34.9511  34.9511  36.0999
    36.1269  36.1269  37.1409  37.2096  38.1895  38.2667  38.3588  38.3588
    39.2452  40.2346  40.7150  40.7150  40.8975  41.0744  43.6295  43.6295
    43.8908  45.4669  45.6220  46.1460  46.1460  46.4605  48.2420  48.2420
    48.5263  48.7107  48.7107  49.8473  49.9969  50.0215  50.8280  51.7399
    51.7399  52.3893  52.3894  52.6928  53.5464  53.5812  55.0466  55.1693

          k = 0.0000 0.1667 0.0000 (  2653 PWs)   bands (ev):

   -90.3074 -90.2440 -45.9150 -45.9150 -45.9085 -45.8992 -45.8992 -45.8985
   -13.3213 -12.6545 -12.5380 -11.1484 -11.0078 -11.0078   7.4326   7.5905
     8.4729  10.2083  10.2083  10.4407  11.4723  11.6083  11.6083  12.3167
    12.3574  12.4980  12.4980  12.8768  12.8768  14.1443  14.1956  14.5443
    14.6430  15.1405  15.1405  15.3674  15.4346  15.4346  15.5437  15.7099
    16.4249  16.4249  28.5693  28.5824  33.9331  33.9331  34.3371  34.4663
    35.1613  35.1613  36.7566  37.1602  37.2003  38.3406  39.4030  39.4030
    39.8163  40.2602  40.8102  41.2371  41.8717  41.8717  43.8700  43.8700
    44.1510  46.8118  46.9869  47.1476  47.1711  47.1711  47.9986  47.9986
    48.6023  48.9005  49.1528  49.4669  49.4669  49.6082  50.9509  50.9509
    51.7942  52.1558  53.1683  53.1685  53.5373  53.6705  53.8058  54.2025

          k = 0.0000 0.1667 0.1429 (  2662 PWs)   bands (ev):

   -90.3374 -90.2512 -45.9205 -45.9190 -45.9132 -45.9106 -45.8972 -45.8932
   -13.2729 -12.6327 -12.5333 -11.1557 -11.1080 -11.0089   7.5236   7.7708
     8.5243  10.1708  10.2977  10.4102  11.4354  11.6436  11.7979  12.3262
    12.3542  12.5224  12.5343  12.5488  12.9007  14.2099  14.2455  14.5867
    14.7341  15.0620  15.1367  15.2198  15.2387  15.4102  15.4734  15.7571
    15.9451  16.4622  28.5800  28.7673  34.1141  34.1591  34.5704  34.7631
    34.9872  35.3637  36.9764  37.1526  37.9404  38.2658  38.7967  39.0288
    40.1785  40.2756  40.4995  40.8527  42.1313  42.1546  43.6333  43.7670
    44.1267  45.7761  46.5032  46.9364  46.9948  47.5791  47.7964  48.1349
    48.2314  48.5962  48.8712  49.0143  49.6594  50.0537  50.0986  51.2293
    52.2196  52.3953  52.7943  53.6465  53.9081  53.9443  53.9573  54.2996

          k = 0.0000 0.1667 0.2857 (  2666 PWs)   bands (ev):

   -90.3178 -90.2880 -45.9173 -45.9153 -45.9139 -45.9113 -45.9055 -45.8991
   -13.1435 -12.6830 -12.3981 -11.3990 -11.1494 -11.0113   7.6060   8.0526
     9.1037  10.0967  10.2704  10.5865  11.5033  11.5737  11.9885  11.9888
    12.3135  12.5459  12.6517  12.7011  13.0105  13.8754  14.2862  14.6030
    14.7048  14.7371  14.7811  15.0239  15.1720  15.2275  15.3170  15.4273
    15.8252  16.5086  28.6564  29.1583  34.2219  34.6351  34.7384  35.2162
    35.8850  36.3132  37.0248  37.5641  37.6039  38.4210  38.4736  39.0705
    39.9524  40.1610  40.2677  40.8733  41.7726  42.0912  43.0375  43.2164
    44.1226  44.6676  45.9983  46.3001  46.7742  47.0125  47.4902  47.8563
    48.1116  48.3669  48.9905  49.0865  49.8273  50.0507  50.1243  51.8536
    52.2474  52.5710  53.1907  53.8072  53.8462  54.1196  54.2629  54.5204

          k = 0.0000 0.1667 0.4286 (  2658 PWs)   bands (ev):

   -90.2976 -90.2756 -45.9139 -45.9123 -45.9101 -45.9061 -45.9060 -45.8967
   -12.9811 -12.8017 -12.1254 -11.7663 -11.1524 -11.0133   7.6596   8.1037
    10.0448  10.1155  10.4395  10.9063  11.1655  11.6607  11.8781  11.8796
    12.3690  12.4195  12.6836  12.7455  13.0805  13.3326  14.1290  14.1842
    14.3658  14.5769  14.8319  15.0023  15.1573  15.1910  15.2297  15.4070
    15.8476  16.5293  28.9168  29.2168  34.6300  35.0629  35.3170  35.8061
    36.1119  36.3706  37.1677  38.0089  38.0181  38.4293  38.5787  38.6170
    39.4199  39.4214  40.4319  40.7636  41.0515  42.2979  42.8580  43.2919
    44.0773  44.1185  45.0391  46.1142  46.3423  46.5224  47.6340  47.7000
    48.0445  48.2500  49.0445  49.3097  49.5697  50.6431  50.8432  51.8520
    52.2081  52.5408  53.1744  53.3652  53.7120  53.7924  54.0461  54.4702

          k = 0.0000 0.3333 0.0000 (  2677 PWs)   bands (ev):

   -90.3426 -90.2996 -45.9192 -45.9192 -45.9170 -45.9101 -45.9101 -45.9085
   -13.1529 -12.7721 -12.3098 -11.5092 -11.0105 -11.0105   7.5507   7.7040
     9.5019  10.0615  10.0615  10.7295  11.5123  11.6482  11.9440  11.9440
    12.1594  12.6520  12.6520  13.0779  13.0779  13.4260  14.2402  14.5193
    14.5481  14.5481  14.6841  15.0186  15.2807  15.2807  15.4010  15.5033
    16.4679  16.4679  28.5811  29.0054  33.9940  34.6256  34.6256  35.8082
    35.8082  36.5342  36.9634  37.1357  37.6166  37.8831  38.5550  38.5550
    39.7650  40.6361  40.8421  40.9917  41.2939  41.2939  43.3568  43.7571
    43.7571  45.7252  45.9984  46.4787  46.4787  47.6567  47.8661  47.9059
    47.9059  48.5893  48.5893  49.4507  49.6718  50.0382  51.0541  51.7076
    51.7077  52.8052  52.8052  53.1973  53.5274  53.7940  54.5561  54.6858

          k = 0.0000 0.3333 0.1429 (  2660 PWs)   bands (ev):

   -90.2991 -90.2824 -45.9164 -45.9114 -45.9112 -45.9079 -45.9056 -45.8973
   -13.1054 -12.7319 -12.3178 -11.5143 -11.1151 -11.0118   7.6198   7.9703
     9.4797  10.0719  10.2078  10.6929  11.4575  11.5637  11.9521  11.9859
    12.2922  12.5846  12.6851  12.8480  13.0898  13.4816  14.3104  14.4881
    14.5495  14.6209  14.7359  15.0270  15.1987  15.2333  15.2879  15.4351
    15.9879  16.5100  28.6869  29.1822  34.1768  34.7591  34.8718  35.5358
    36.0085  36.7052  36.9562  37.4300  37.7532  38.1747  38.4116  38.7566
    39.8016  40.0377  40.7555  40.9493  41.4156  41.9776  42.8798  43.2165
    44.0826  44.6484  45.8010  46.3481  46.7968  46.8454  47.4730  47.7177
    48.0871  48.3453  49.1557  49.3242  49.8065  50.1226  50.3224  52.0313
    52.0834  52.4881  53.3761  53.6835  53.7196  53.9131  54.1129  54.2878

          k = 0.0000 0.3333 0.2857 (  2658 PWs)   bands (ev):

   -90.3078 -90.2697 -45.9136 -45.9136 -45.9092 -45.9064 -45.9052 -45.8975
   -12.9947 -12.6302 -12.3093 -11.5472 -11.3727 -11.0143   7.6658   8.8299
     9.5194  10.0919  10.4808  10.5914  11.4068  11.5154  11.8043  11.8721
    12.4593  12.7128  12.7143  12.7527  13.1273  13.4551  13.8564  14.4590
    14.5277  14.5675  14.8091  14.9059  15.0227  15.1216  15.2288  15.2622
    15.3487  16.5595  28.9836  29.5306  34.5936  34.8716  35.2749  35.5331
    36.5558  36.7940  37.0769  37.5130  37.7505  38.1226  38.5479  39.7877
    39.8401  40.2661  41.0237  41.1115  41.5165  41.9377  42.3261  42.3912
    43.2345  43.4701  45.3964  45.6373  46.2620  46.7572  47.2107  47.7955
    48.0333  48.1575  48.6800  48.8179  49.0226  50.7932  50.9577  51.5649
    52.9049  53.0818  53.4741  53.7920  54.0403  54.0668  54.2100  54.7183

          k = 0.0000 0.3333 0.4286 (  2654 PWs)   bands (ev):

   -90.2841 -90.2748 -45.9162 -45.9123 -45.9112 -45.9110 -45.8937 -45.8935
   -12.8985 -12.5745 -12.1426 -11.8039 -11.4887 -11.0159   7.7014   9.3271
    10.1065  10.2485  10.6005  10.6639  11.3719  11.5718  11.6675  11.7149
    12.2265  12.5841  12.8015  12.8287  13.0144  13.3877  13.4221  14.1595
    14.2303  14.4359  14.6178  14.8733  15.0112  15.1882  15.2130  15.2959
    15.3124  16.5803  29.3852  29.6615  34.4909  35.0760  35.8633  36.2728
    36.3056  36.9520  37.0177  37.6917  37.8392  37.9805  39.0673  39.6462
    39.6702  40.1889  41.1058  41.4374  41.6245  41.8661  42.2770  42.5577
    42.8932  43.2426  45.1053  45.2010  45.7526  46.2015  46.9863  47.2052
    47.4422  47.8221  48.0184  48.6515  49.4400  51.4016  51.4656  51.9540
    52.8096  52.9219  53.1770  53.1973  53.6908  54.2197  54.5410  54.6551

          k = 0.0000-0.5000 0.0000 (  2666 PWs)   bands (ev):

   -90.2991 -90.2991 -45.9114 -45.9114 -45.9113 -45.9113 -45.9076 -45.9076
   -12.9491 -12.9491 -11.9418 -11.9418 -11.0120 -11.0120   7.6546   7.6546
    10.0036  10.0036  10.8305  10.8305  11.5680  11.5680  11.8976  11.8976
    12.0841  12.0841  12.7193  12.7193  13.4117  13.4117  14.0611  14.0611
    14.3564  14.3564  14.8999  14.8999  15.2107  15.2107  15.4519  15.4519
    16.4809  16.4809  28.8687  28.8687  35.0373  35.0373  35.2354  35.2354
    36.2115  36.2115  37.1628  37.1628  38.3261  38.3261  38.7710  38.7710
    39.3147  39.3147  40.5395  40.5395  40.9038  40.9038  43.5924  43.5924
    45.1967  45.1967  45.4706  45.4706  46.0540  46.0540  48.2262  48.2262
    48.9210  48.9210  49.1940  49.1940  49.9486  49.9486  51.7690  51.7690
    51.8347  51.8347  52.1614  52.1615  53.5826  53.5826  55.0847  55.0855

          k = 0.0000-0.5000 0.1429 (  2666 PWs)   bands (ev):

   -90.3000 -90.2997 -45.9172 -45.9171 -45.9105 -45.9105 -45.9030 -45.9029
   -12.9335 -12.8751 -11.9588 -11.9411 -11.1168 -11.0131   7.6647   7.9892
    10.0299  10.1118  10.8333  10.8449  11.4205  11.5343  11.7491  11.8353
    12.1062  12.3652  12.6657  12.7468  13.2151  13.4386  14.0383  14.0480
    14.3712  14.5253  14.8815  14.9670  15.1515  15.2114  15.2615  15.4156
    16.0017  16.5189  29.0193  29.0344  35.0633  35.0897  35.3161  35.4717
    36.0556  36.3806  37.1593  37.9585  38.0868  38.4095  38.8681  39.0778
    39.0798  39.3320  39.8146  40.5655  40.9232  42.1322  42.9628  43.6267
    44.2476  44.7663  45.2308  45.3173  46.2452  46.3928  47.8375  47.9067
    48.1997  48.2239  49.1707  49.4446  49.4773  50.6640  51.0860  51.5172
    52.1124  52.5085  53.1000  53.1923  53.6826  53.7409  53.9033  54.4996

          k = 0.0000-0.5000 0.2857 (  2658 PWs)   bands (ev):

   -90.2868 -90.2861 -45.9166 -45.9164 -45.9123 -45.9122 -45.8941 -45.8939
   -12.8961 -12.6657 -11.9987 -11.9461 -11.3874 -11.0156   7.6935   8.9296
    10.0883  10.3242  10.7352  10.8655  11.3768  11.5390  11.6342  11.7018
    11.9812  12.5407  12.7956  12.8474  12.9115  13.5052  13.7576  14.0146
    14.2085  14.5533  14.7987  14.8214  15.1154  15.2073  15.2157  15.2194
    15.3319  16.5716  29.4043  29.4322  34.6307  35.3446  35.7693  35.9048
    36.1225  36.8176  37.0416  37.8482  38.1100  38.1316  39.1092  39.4227
    39.4469  40.2834  40.3152  40.9756  41.1775  42.0546  42.6476  42.9975
    43.0186  44.0194  44.8113  45.3335  45.4900  46.7809  47.1525  47.3341
    47.3354  47.8966  47.9999  48.8094  49.3221  51.7574  51.8393  52.1573
    52.3915  52.4161  52.7235  52.9461  54.2910  54.3189  54.5010  54.9136

          k = 0.0000-0.5000 0.4286 (  2662 PWs)   bands (ev):

   -90.2944 -90.2943 -45.9159 -45.9155 -45.9150 -45.9150 -45.8965 -45.8961
   -12.8643 -12.3813 -12.0335 -11.9992 -11.6707 -11.0171   7.7286  10.1405
    10.2106  10.4306  10.6400  10.8681  11.5596  11.5894  11.5985  11.6842
    11.7570  12.2026  12.4896  12.8250  12.8996  13.4050  13.5661  13.9629
    14.1386  14.2015  14.2560  14.9057  14.9272  15.1895  15.2817  15.3598
    15.3624  16.5940  29.7789  29.7864  34.1085  35.1029  35.8618  36.6728
    37.0578  37.2577  37.3007  37.3841  37.7341  38.0718  38.8869  39.6366
    39.6653  39.7769  40.8771  41.4106  41.9718  42.3244  42.6070  42.7835
    43.1421  44.4417  44.5610  44.7631  45.3843  45.5748  45.5787  46.5497
    47.0441  47.0663  48.3972  48.4507  50.1283  50.9685  51.2220  52.3867
    52.4544  52.5998  53.1302  53.2280  53.5064  53.8876  54.2577  55.2605

          k = 0.2000 0.0000 0.0000 (  2661 PWs)   bands (ev):

   -90.3406 -90.2432 -45.9195 -45.9195 -45.9160 -45.8992 -45.8992 -45.8985
   -13.2945 -12.6723 -12.5047 -11.2070 -11.0083 -11.0083   7.4533   7.6388
     8.5970  10.1759  10.1759  10.4897  11.4992  11.6783  11.6783  12.1519
    12.3262  12.5263  12.5263  12.8977  12.8977  14.1585  14.1635  14.5621
    14.6803  15.0427  15.0427  15.3725  15.4008  15.4008  15.4712  15.5370
    16.4367  16.4367  28.5630  28.6708  34.0555  34.0555  34.1845  34.8062
    35.2717  35.2717  36.8908  37.1557  37.1782  38.7873  39.1911  39.1911
    39.4643  40.1988  40.7935  41.1984  41.8854  41.8854  43.8768  43.8768
    44.1519  46.5489  46.7689  46.9704  46.9704  47.3556  47.8312  47.8312
    48.4336  48.6469  49.2526  49.2526  49.2846  49.7530  51.2042  51.2043
    51.7203  52.3254  53.1482  53.1482  53.6955  53.7436  54.1912  54.2276

          k = 0.2000 0.0000 0.1429 (  2667 PWs)   bands (ev):

   -90.3263 -90.2813 -45.9200 -45.9188 -45.9160 -45.9105 -45.9007 -45.8982
   -13.2456 -12.6442 -12.5056 -11.2124 -11.1109 -11.0096   7.5440   7.8429
     8.6238  10.1498  10.2827  10.4533  11.4488  11.6609  11.8625  12.2252
    12.3055  12.5320  12.5599  12.5880  12.9185  14.1912  14.2498  14.6009
    14.7707  14.9881  15.0414  15.1720  15.2201  15.3864  15.4631  15.5487
    15.9524  16.4747  28.5790  28.8677  34.2022  34.2829  34.4492  34.8917
    35.2821  35.4754  37.1033  37.1350  37.8889  38.4453  38.8666  38.8724
    39.9923  40.1336  40.4988  40.8453  42.1339  42.1497  43.5603  43.6349
    44.1566  45.4934  46.4134  46.7392  46.9361  47.3964  47.9332  48.0005
    48.2003  48.4447  48.7320  48.9924  49.7497  50.0605  50.0941  51.4077
    52.1878  52.4734  52.8559  53.6559  53.9334  53.9986  54.0804  54.5185

          k = 0.2000 0.0000 0.2857 (  2659 PWs)   bands (ev):

   -90.3002 -90.2803 -45.9125 -45.9116 -45.9109 -45.9072 -45.9069 -45.8989
   -13.1173 -12.6655 -12.3965 -11.4038 -11.2052 -11.0119   7.6198   8.2218
     9.1142  10.0961  10.3317  10.5681  11.4922  11.5452  11.9806  11.9858
    12.3839  12.5108  12.6681  12.6697  13.0197  13.8774  14.2450  14.5947
    14.7038  14.7339  14.8154  15.0229  15.0819  15.2050  15.3112  15.4060
    15.6048  16.5222  28.7047  29.2453  34.3333  34.6954  34.8714  35.1227
    35.9999  36.4812  36.9886  37.5587  37.6471  38.4063  38.7084  39.0555
    39.9483  40.0510  40.3069  40.9854  41.7585  42.0897  42.8762  43.0304
    44.0398  44.3638  45.8127  46.1623  46.6262  47.0754  47.3839  47.9113
    48.2437  48.3436  48.9148  48.9594  49.6049  50.1199  50.2490  51.7805
    52.4450  52.6808  53.2591  53.8214  53.9699  54.0112  54.4591  54.5434

          k = 0.2000 0.0000 0.4286 (  2660 PWs)   bands (ev):

   -90.3009 -90.2795 -45.9153 -45.9132 -45.9129 -45.9068 -45.9024 -45.8987
   -12.9629 -12.7693 -12.1300 -11.7706 -11.2099 -11.0139   7.6666   8.2944
    10.0562  10.1467  10.4694  10.8560  11.1917  11.6339  11.8273  11.8466
    12.3548  12.5246  12.6759  12.7588  13.0105  13.3426  14.0918  14.1804
    14.3466  14.6224  14.8181  15.0185  15.0944  15.1642  15.2259  15.3878
    15.6251  16.5427  28.9951  29.3018  34.6524  35.1324  35.4733  35.6599
    36.1576  36.4738  37.1551  37.9431  38.0837  38.4080  38.6996  38.8258
    39.4450  39.4736  40.5520  40.7399  41.0792  42.4667  42.6418  43.2497
    43.7534  43.9478  44.8663  46.0194  46.1639  46.7684  47.3534  47.5772
    47.9760  48.1952  48.9589  49.1991  49.2235  50.8814  51.0605  52.0648
    52.1779  52.6259  53.0874  53.2073  53.7634  54.1613  54.2679  54.5826

          k = 0.2000 0.1667 0.0000 (  2672 PWs)   bands (ev):

   -90.3239 -90.3052 -45.9254 -45.9177 -45.9153 -45.9114 -45.9080 -45.8967
   -13.2288 -12.6394 -12.5003 -11.2170 -11.1440 -11.0100   7.5583   7.9198
     8.6470  10.1419  10.3113  10.4474  11.4465  11.6542  11.9030  12.2269
    12.3030  12.4986  12.5643  12.5727  12.9267  14.1996  14.2457  14.6106
    14.7990  14.9708  15.0359  15.1166  15.1667  15.3780  15.4490  15.5500
    15.8076  16.4831  28.5857  28.9301  34.2585  34.3612  34.5207  34.8081
    35.4424  35.5453  37.1220  37.1767  37.9889  38.4734  38.7832  38.8604
    39.9956  40.1139  40.3676  40.8710  42.1577  42.1639  43.4694  43.5354
    44.1584  45.2735  46.3400  46.6012  46.8514  47.3906  47.8732  48.0749
    48.1906  48.4770  48.7508  48.8464  49.6753  50.0268  50.0975  51.4514
    52.2737  52.4601  52.8912  53.6662  53.9500  54.0014  54.2532  54.5929

          k = 0.2000 0.1667 0.1429 (  2665 PWs)   bands (ev):

   -90.3220 -90.2804 -45.9217 -45.9152 -45.9142 -45.9130 -45.9000 -45.8965
   -13.1781 -12.5904 -12.5226 -11.2185 -11.1536 -11.1084   7.8340   7.9665
     8.6467  10.2605  10.3121  10.4353  11.2888  11.8454  11.8828  12.1907
    12.3269  12.5057  12.6146  12.6297  12.6585  14.2646  14.3275  14.7309
    14.7909  14.9525  14.9956  15.0320  15.1103  15.2516  15.2921  15.5818
    15.8527  16.0220  28.6487  29.1117  34.4546  34.4819  34.8078  35.0348
    35.1996  35.8742  37.3768  37.6968  37.9790  38.1513  38.5594  38.9007
    40.0762  40.0970  40.5393  40.7792  41.9616  42.1085  43.0704  43.1185
    44.1948  45.5767  45.9516  46.4289  46.5892  46.7404  46.9752  48.0757
    48.3967  48.5110  48.9805  49.1334  49.5974  49.9667  49.9702  51.1426
    52.3254  53.0759  53.1255  53.5419  54.3156  54.4240  54.5102  54.7397

          k = 0.2000 0.1667 0.2857 (  2655 PWs)   bands (ev):

   -90.3121 -90.2505 -45.9154 -45.9123 -45.9089 -45.9073 -45.9008 -45.8947
   -13.0462 -12.6077 -12.4176 -11.4071 -11.2140 -11.1501   8.0342   8.2752
     9.0788  10.2886  10.3713  10.5673  11.1596  11.7971  11.8626  12.0743
    12.2439  12.5435  12.6345  12.7518  12.8518  13.9667  14.3400  14.5454
    14.7035  14.7801  14.8445  15.0202  15.0388  15.1328  15.1561  15.2683
    15.6637  15.9109  28.8510  29.4641  34.5733  34.8976  35.1465  35.4113
    35.6449  36.9215  37.2266  37.6565  37.8958  38.3052  38.7961  39.3011
    39.7434  40.3235  40.4097  40.7703  41.5759  41.9032  42.2456  42.4900
    44.2866  44.8056  45.4582  45.7858  46.0178  46.2855  46.7300  47.6451
    48.3733  48.4876  48.8813  49.2485  49.6875  49.8671  50.3762  51.7063
    52.3648  53.3050  53.4878  53.7911  53.9293  54.3083  54.9274  55.1748

          k = 0.2000 0.1667 0.4286 (  2655 PWs)   bands (ev):

   -90.2843 -90.2743 -45.9145 -45.9118 -45.9078 -45.9071 -45.9002 -45.8976
   -12.8829 -12.7256 -12.1410 -11.7781 -11.2147 -11.1564   8.1142   8.3133
    10.1233  10.2619  10.5338  10.8690  11.0110  11.5381  11.7476  12.0596
    12.1890  12.3176  12.8088  12.9329  12.9565  13.1832  14.0390  14.1436
    14.6065  14.6838  14.8217  14.9172  15.0432  15.1137  15.1828  15.2541
    15.6855  15.9167  29.1957  29.5202  34.8336  35.3720  35.5664  35.7792
    36.1246  36.3914  37.7776  38.0562  38.4154  38.6405  38.7679  38.8757
    39.4077  39.6734  39.8840  40.3638  41.8297  41.9733  42.3952  42.5984
    43.9118  44.6041  45.1126  45.3767  45.7133  45.8727  46.8629  47.1755
    47.6092  48.1876  48.8852  49.0649  49.4439  50.0914  51.6271  52.1337
    52.2349  53.3689  53.5132  53.6707  53.8904  54.2295  54.4336  54.9153

          k = 0.2000 0.3333 0.0000 (  2656 PWs)   bands (ev):

   -90.3041 -90.2641 -45.9132 -45.9119 -45.9100 -45.9071 -45.9042 -45.8951
   -13.0652 -12.6955 -12.3214 -11.5209 -11.2075 -11.0126   7.6397   8.2632
     9.4755  10.0794  10.3158  10.6563  11.4320  11.5327  11.9163  11.9530
    12.4432  12.5287  12.7094  12.7628  13.0993  13.4838  14.2419  14.4752
    14.5485  14.6737  14.7756  15.0204  15.0857  15.1747  15.2794  15.3975
    15.6115  16.5317  28.7877  29.3179  34.3357  34.8631  35.0975  35.3463
    36.1939  36.7326  37.0211  37.4607  37.8144  38.3766  38.5588  38.8741
    39.8266  39.8923  40.8535  41.0719  41.4098  42.0233  42.6937  42.8712
    43.9516  44.1018  45.4869  46.1775  46.5585  46.9394  47.1784  47.7210
    48.2275  48.3198  49.0298  49.1011  49.5557  50.2974  50.3790  51.9675
    52.4208  52.6447  53.4579  53.7262  53.8105  54.0514  54.2060  54.4682

          k = 0.2000 0.3333 0.1429 (  2657 PWs)   bands (ev):

   -90.3084 -90.2612 -45.9141 -45.9119 -45.9083 -45.9072 -45.9049 -45.8966
   -13.0110 -12.6563 -12.3341 -11.5244 -11.2120 -11.1176   7.9594   8.2894
     9.4428  10.2353  10.3551  10.6589  11.1695  11.6863  11.8370  12.0656
    12.2547  12.5816  12.7176  12.7683  12.9611  13.5796  14.3035  14.3930
    14.6354  14.7346  14.7948  14.9941  15.0599  15.1340  15.1738  15.2729
    15.6640  16.0580  28.9092  29.4828  34.5073  35.0305  35.2543  35.5472
    35.9454  36.7919  37.4157  37.7031  38.0338  38.1142  38.7788  39.0013
    39.7395  40.0442  40.6011  40.9238  41.5389  41.9689  42.1475  42.5025
    44.0647  44.5937  45.3641  45.8170  45.9564  46.2879  46.8483  47.4592
    48.0408  48.6702  48.9643  49.2976  49.4606  49.9843  50.7436  51.7842
    52.3680  53.3130  53.6471  53.7252  53.9361  54.0204  54.4605  55.2072

          k = 0.2000 0.3333 0.2857 (  2656 PWs)   bands (ev):

   -90.3013 -90.2623 -45.9151 -45.9132 -45.9104 -45.9051 -45.9022 -45.8951
   -12.8802 -12.5531 -12.3417 -11.5444 -11.3914 -11.2158   8.3012   8.8861
     9.4498  10.4180  10.5390  10.6486  10.9614  11.6976  11.7709  11.9075
    12.2865  12.4390  12.6228  12.9484  13.0393  13.6129  13.9530  14.2502
    14.4821  14.6725  14.8344  14.8868  15.0226  15.1110  15.1144  15.2137
    15.3217  15.7127  29.2465  29.8335  34.9005  35.2581  35.4617  35.6975
    36.1467  37.0137  37.2698  37.7727  38.3195  38.7079  38.8574  39.5327
    40.2196  40.3175  40.5444  40.9480  41.0335  41.3068  41.8846  42.0816
    43.9922  44.1010  44.6492  45.2710  45.7652  46.0891  46.2682  47.2752
    47.8748  48.0612  48.3474  49.1378  49.2857  49.9510  51.1391  51.8992
    52.3945  53.4050  53.7743  54.1221  54.2379  54.5635  54.6514  54.8591

          k = 0.2000 0.3333 0.4286 (  2643 PWs)   bands (ev):

   -90.2610 -90.2511 -45.9113 -45.9111 -45.9035 -45.9029 -45.8960 -45.8899
   -12.7577 -12.5296 -12.1584 -11.8046 -11.5091 -11.2221   8.3483   9.3547
    10.1950  10.4795  10.6191  10.6880  11.1021  11.5264  11.6650  11.8432
    12.1942  12.2768  12.6009  12.9466  13.0777  13.2151  13.5332  13.9914
    14.2927  14.4938  14.7228  14.7779  15.0463  15.1212  15.2007  15.2589
    15.3458  15.7104  29.6956  29.9877  34.8946  35.2251  35.8506  35.9561
    36.6428  36.8750  37.5303  37.7743  38.6727  38.8449  38.9420  39.4841
    39.8844  40.1434  40.2305  40.7872  41.2751  41.7030  42.1586  42.5517
    43.7244  43.8333  44.5200  44.8877  45.6910  45.9199  46.1273  46.6584
    46.9363  47.3507  48.1217  48.4321  49.4360  50.0141  51.2540  51.9443
    52.3301  53.0863  53.7117  53.9506  54.4162  54.6434  54.7475  55.1963

          k = 0.2000-0.5000 0.0000 (  2658 PWs)   bands (ev):

   -90.2849 -90.2847 -45.9106 -45.9106 -45.9090 -45.9089 -45.9029 -45.9028
   -12.9199 -12.8056 -11.9732 -11.9414 -11.2105 -11.0139   7.6742   8.3009
    10.0508  10.1973  10.8142  10.8549  11.3633  11.5203  11.6949  11.7838
    12.0826  12.5437  12.6270  12.7686  13.0813  13.4639  14.0050  14.0369
    14.3378  14.6148  14.8291  15.0347  15.0989  15.1501  15.2112  15.3867
    15.6313  16.5442  29.1549  29.1798  34.9240  35.2021  35.5799  35.6147
    35.9178  36.5333  37.1362  37.9762  38.3163  38.5762  38.7623  38.9564
    39.2406  39.3966  40.2173  40.5328  40.9630  42.4925  42.5875  43.6712
    43.7352  44.1185  45.0599  45.2699  46.1368  46.7337  47.5824  47.6573
    47.6620  48.1384  48.9394  49.0631  49.2427  51.2011  51.5340  51.7099
    52.0340  52.6349  52.9262  53.1884  53.9128  53.9544  54.2301  54.8650

          k = 0.2000-0.5000 0.1429 (  2658 PWs)   bands (ev):

   -90.2854 -90.2847 -45.9142 -45.9141 -45.9102 -45.9102 -45.8984 -45.8984
   -12.8451 -12.7892 -11.9713 -11.9569 -11.2137 -11.1205   8.0079   8.3087
    10.1774  10.2381  10.8282  10.8634  11.2919  11.3147  11.7678  11.7797
    12.1432  12.2837  12.8225  12.8234  13.0894  13.2361  14.0007  14.0259
    14.5510  14.6671  14.8302  14.9594  15.0522  15.1209  15.2039  15.2520
    15.6835  16.0656  29.3223  29.3314  35.0935  35.3620  35.5117  35.6459
    36.1209  36.4067  37.7674  38.1838  38.2961  38.8154  38.8486  38.9999
    39.2260  39.4840  39.7213  40.0069  41.8176  42.0423  42.5520  42.6032
    44.5863  44.7322  44.9131  45.2017  45.4113  45.9497  47.1699  47.1897
    47.6783  47.7634  48.8587  49.0737  49.6285  50.2767  51.6604  51.9721
    52.7550  52.9014  53.4198  53.4907  53.8074  54.1046  54.3656  54.7627

          k = 0.2000-0.5000 0.2857 (  2648 PWs)   bands (ev):

   -90.2662 -90.2652 -45.9111 -45.9111 -45.9069 -45.9069 -45.8942 -45.8941
   -12.7497 -12.6329 -11.9942 -11.9702 -11.3993 -11.2206   8.3411   8.9481
    10.3510  10.3999  10.7292  10.8680  11.2476  11.2864  11.6868  11.7845
    12.0112  12.2139  12.7880  12.9199  13.0930  13.1044  13.7767  13.9799
    14.4527  14.5137  14.7861  14.7901  15.0126  15.1232  15.2547  15.2740
    15.3035  15.7108  29.7277  29.7368  35.0118  35.4100  35.8326  35.8392
    36.3786  36.6359  37.6809  37.9513  38.8532  38.8878  39.1371  39.3859
    39.6478  39.8108  40.0803  40.1522  41.4687  41.5918  42.1976  42.5312
    44.0135  44.5874  44.8652  44.9152  45.1752  45.9952  46.3434  46.5546
    47.0547  47.1942  48.3074  48.8040  49.2302  49.8391  51.6039  52.2819
    52.7476  52.9113  53.7127  53.9534  54.3495  54.5876  54.7758  54.8413

          k = 0.2000-0.5000 0.4286 (  2646 PWs)   bands (ev):

   -90.2614 -90.2604 -45.9102 -45.9100 -45.9092 -45.9091 -45.8912 -45.8912
   -12.7146 -12.3379 -12.0278 -11.9997 -11.7166 -11.2260   8.3774  10.2110
    10.4240  10.5136  10.5871  10.9261  11.4441  11.4787  11.4936  11.7295
    11.8524  12.1483  12.4050  12.6748  13.1011  13.1492  13.1938  13.8444
    14.1994  14.3809  14.4929  14.7183  15.1077  15.1163  15.1691  15.4165
    15.4195  15.6963  30.1252  30.1260  34.5753  35.0088  35.6746  36.7551
    37.1609  37.2626  37.6522  37.7790  38.2440  38.9812  39.0359  39.3694
    39.4571  39.6404  39.8994  41.5115  41.9367  42.2009  42.4145  43.3495
    43.3919  44.1475  44.6283  44.6386  44.9878  45.1090  45.5655  46.6245
    46.6545  46.8410  47.1128  48.1672  50.0053  50.3374  50.7024  51.6351
    51.8596  52.0478  53.4228  53.9974  54.0946  54.9447  55.2186  55.6337

          k = 0.4000 0.0000 0.0000 (  2657 PWs)   bands (ev):

   -90.3123 -90.2528 -45.9149 -45.9149 -45.9091 -45.9039 -45.9039 -45.8966
   -13.0712 -12.8366 -12.1769 -11.6818 -11.0113 -11.0113   7.5986   7.6936
    10.0251  10.0251  10.1154  10.9129  11.2354  11.7424  12.0333  12.0333
    12.0598  12.6915  12.6968  12.6968  13.2364  13.2364  14.2874  14.2910
    14.2910  14.4348  14.7705  14.9915  15.2388  15.2388  15.4213  15.4849
    16.4779  16.4779  28.6774  29.0248  34.2997  34.8742  34.8742  36.0504
    36.0504  36.4389  37.1359  37.2101  37.7964  38.0664  38.3955  38.3955
    39.4192  40.4368  40.8654  40.8654  40.9163  41.1780  43.4887  43.6616
    43.6616  45.5141  45.7170  46.2286  46.2286  46.8872  48.2196  48.2196
    48.2974  48.5837  48.5837  49.8056  50.0392  50.3396  50.4021  51.7361
    51.7361  52.5322  52.5323  53.0039  53.5154  53.5401  54.9312  55.2428

          k = 0.4000 0.0000 0.1429 (  2659 PWs)   bands (ev):

   -90.3048 -90.2728 -45.9131 -45.9131 -45.9127 -45.9065 -45.9045 -45.8975
   -13.0269 -12.7924 -12.1856 -11.6883 -11.1161 -11.0127   7.6471   7.9840
    10.0102  10.0453  10.2551  10.8531  11.2313  11.6452  11.9328  11.9435
    12.3341  12.5432  12.7260  12.7845  13.0806  13.2507  14.2243  14.2871
    14.3717  14.5508  14.8028  15.0080  15.1707  15.2291  15.2631  15.4226
    15.9959  16.5180  28.8074  29.1913  34.4268  34.9638  35.1363  35.8306
    36.2380  36.3436  37.1781  37.7219  38.0112  38.1820  38.4490  38.5444
    39.5220  39.6527  40.5599  40.9332  41.1503  42.1243  43.0279  43.0604
    44.0518  44.3948  45.3752  46.2988  46.4655  46.5629  47.7009  47.7767
    48.1122  48.2890  49.0422  49.4011  49.9617  50.3537  50.4926  51.8484
    52.2146  52.4617  53.2023  53.4867  53.7085  53.7088  53.9462  54.4038

          k = 0.4000 0.0000 0.2857 (  2657 PWs)   bands (ev):

   -90.3035 -90.2690 -45.9176 -45.9119 -45.9111 -45.9105 -45.9012 -45.8912
   -12.9380 -12.6451 -12.1990 -11.7130 -11.3837 -11.0151   7.6826   8.9049
    10.0381  10.0892  10.4918  10.6887  11.3186  11.5609  11.7402  11.7939
    12.3969  12.7680  12.7940  12.8209  12.8445  13.2876  13.8131  14.2747
    14.3076  14.5592  14.7991  14.8509  15.0767  15.1479  15.2299  15.2455
    15.3384  16.5673  29.1610  29.5583  34.5941  35.0775  35.5096  35.8629
    36.4722  36.7626  37.0609  37.7496  37.7779  38.0799  38.8225  39.6314
    39.6821  40.2812  40.6403  41.1853  41.3900  42.1771  42.5162  42.6764
    43.0029  43.1938  45.0996  45.5358  46.0315  46.5666  47.2228  47.5638
    47.7300  47.9750  48.3590  48.7875  49.2016  51.1569  51.4246  51.6697
    52.8070  52.9307  53.2087  53.3020  53.9675  54.2740  54.3920  54.8655

          k = 0.4000 0.0000 0.4286 (  2657 PWs)   bands (ev):

   -90.2921 -90.2783 -45.9186 -45.9146 -45.9129 -45.9086 -45.8975 -45.8921
   -12.8772 -12.4637 -12.1277 -11.8560 -11.6086 -11.0168   7.7174   9.9088
    10.1265  10.2945  10.6149  10.6466  11.4865  11.5674  11.6389  11.6568
    12.0972  12.4764  12.7892  12.8164  12.8711  13.2734  13.4080  14.1223
    14.2080  14.2661  14.3818  14.9097  14.9336  15.2011  15.2798  15.2910
    15.3509  16.5892  29.5824  29.7799  34.2725  35.0583  36.0345  36.3778
    36.7638  36.8977  37.3495  37.5599  37.6729  37.9781  39.1565  39.6765
    39.7524  39.7580  41.3595  41.5874  41.8791  42.0907  42.2674  42.7096
    42.7384  43.2663  44.9078  45.2986  45.5254  45.7533  46.1975  47.0989
    47.2157  47.2410  48.2818  48.4909  49.7797  51.0830  51.4236  52.2595
    52.5745  52.8258  53.1503  53.4379  53.5442  53.9915  54.0903  55.0231

          k = 0.4000 0.1667 0.0000 (  2659 PWs)   bands (ev):

   -90.2974 -90.2803 -45.9147 -45.9122 -45.9101 -45.9061 -45.9059 -45.8983
   -13.0129 -12.7755 -12.1884 -11.6908 -11.1520 -11.0131   7.6524   8.0997
    10.0115  10.0516  10.2940  10.8303  11.2369  11.6256  11.9117  11.9128
    12.4030  12.5188  12.7352  12.7903  13.0387  13.2558  14.2015  14.2858
    14.3718  14.5883  14.8070  15.0088  15.1641  15.1872  15.2424  15.4099
    15.8442  16.5278  28.8523  29.2466  34.4659  35.0002  35.2291  35.7437
    36.3044  36.3405  37.1759  37.7952  37.9774  38.4156  38.4912  38.5127
    39.5506  39.5717  40.6039  40.9356  41.1660  42.2557  42.9081  42.9621
    44.0448  44.1517  45.1853  46.3513  46.3745  46.5927  47.5094  47.6758
    48.1164  48.2809  49.0517  49.2813  49.7180  50.4971  50.6046  51.9754
    52.2250  52.5160  53.2363  53.4655  53.7543  53.8438  54.0251  54.3820

          k = 0.4000 0.1667 0.1429 (  2662 PWs)   bands (ev):

   -90.3006 -90.2867 -45.9152 -45.9146 -45.9107 -45.9090 -45.9063 -45.8978
   -12.9593 -12.7384 -12.1977 -11.6964 -11.1552 -11.1182   7.9724   8.1238
     9.9706  10.1972  10.3589  10.8198  11.1128  11.5901  11.8085  12.1178
    12.2068  12.4792  12.7455  12.9438  12.9668  13.1882  14.1591  14.2398
    14.5810  14.6296  14.8367  14.9764  15.0959  15.1479  15.1943  15.2801
    15.8855  16.0520  28.9906  29.4089  34.6041  35.1915  35.3434  35.9153
    36.0731  36.3486  37.8045  37.9088  38.1110  38.2967  38.5020  38.8086
    39.4871  39.6716  40.1133  40.6474  41.9688  42.0929  42.4329  42.5599
    43.8591  44.7704  45.2855  45.7267  45.8375  46.1540  47.1040  47.3322
    47.7668  48.6263  48.9573  49.4269  49.5381  50.0716  51.1112  52.0612
    52.1340  53.2793  53.4132  53.5515  53.8101  53.9246  54.1132  54.7211

          k = 0.4000 0.1667 0.2857 (  2650 PWs)   bands (ev):

   -90.2715 -90.2694 -45.9132 -45.9093 -45.9082 -45.9064 -45.8970 -45.8950
   -12.8479 -12.6063 -12.2130 -11.7152 -11.3936 -11.1594   8.1338   8.9250
     9.9845  10.3546  10.5420  10.7133  11.0488  11.5791  11.7094  11.9061
    12.3068  12.4140  12.6882  12.9288  13.1343  13.1494  13.8631  14.1213
    14.4749  14.5707  14.8066  14.9193  14.9618  15.1162  15.1733  15.2734
    15.3032  15.9334  29.3635  29.7846  34.8315  35.3210  35.5914  35.8195
    36.4399  36.7280  37.4455  37.8747  38.4023  38.5872  38.7061  39.4854
    39.9431  40.2115  40.3072  40.6089  41.2784  41.7670  42.1262  42.5197
    43.5828  43.9348  44.8632  45.0630  45.9034  46.0681  46.4284  47.1087
    47.5209  47.6836  48.5298  48.7833  49.3150  50.2016  51.5609  51.9087
    52.5644  53.3557  53.6603  53.9562  54.0836  54.4560  54.5364  54.8720

          k = 0.4000 0.1667 0.4286 (  2652 PWs)   bands (ev):

   -90.2761 -90.2707 -45.9137 -45.9133 -45.9109 -45.9066 -45.8987 -45.8906
   -12.7744 -12.4320 -12.1379 -11.8480 -11.6356 -11.1637   8.1710   9.9414
    10.2003  10.4659  10.5934  10.6566  11.2781  11.5162  11.6774  11.7341
    12.0845  12.3620  12.6134  12.7343  13.0498  13.2219  13.3011  13.9586
    14.1762  14.4191  14.5555  14.8668  15.0368  15.0569  15.2124  15.3242
    15.3881  15.9392  29.8103  30.0177  34.6014  35.0647  35.8053  36.3714
    37.0107  37.1987  37.4919  37.6064  38.3625  38.5776  38.8642  39.4572
    39.8796  39.9336  39.9898  41.4479  41.8205  41.9763  42.2658  42.9897
    43.2373  43.7520  44.4158  44.7301  45.4174  45.7298  46.0352  46.7920
    46.8546  47.3493  47.4892  48.3298  49.8266  50.5493  51.0149  51.9516
    52.2761  52.6691  53.3596  53.6109  54.1679  54.4500  54.9491  55.0186

          k = 0.4000 0.3333 0.0000 (  2652 PWs)   bands (ev):

   -90.2851 -90.2677 -45.9141 -45.9120 -45.9114 -45.9092 -45.8949 -45.8916
   -12.9123 -12.5775 -12.1938 -11.7343 -11.4830 -11.0156   7.6964   9.3021
    10.0632  10.1048  10.5529  10.6392  11.3746  11.5535  11.6839  11.7459
    12.3313  12.7870  12.7943  12.7993  12.9927  13.3030  13.4388  14.2622
    14.2855  14.4396  14.6241  14.8899  15.0063  15.1495  15.2222  15.2944
    15.3154  16.5780  29.3061  29.6715  34.5422  34.9591  35.7797  36.1695
    36.4547  36.9284  36.9936  37.6492  37.7644  37.9718  38.9759  39.7154
    39.7165  40.3414  41.0825  41.5183  41.7143  41.9335  42.2954  42.4066
    42.7431  42.9714  45.2413  45.2422  45.9283  46.2062  47.1933  47.2137
    47.5191  48.0115  48.0323  48.6494  49.3722  51.3109  51.3976  51.7562
    52.8438  53.0116  53.3331  53.5040  53.7228  54.1189  54.5183  54.5920

          k = 0.4000 0.3333 0.1429 (  2654 PWs)   bands (ev):

   -90.2831 -90.2737 -45.9145 -45.9138 -45.9128 -45.9078 -45.8944 -45.8943
   -12.8413 -12.5508 -12.2049 -11.7325 -11.4952 -11.1239   8.0300   9.3207
    10.0007  10.3392  10.5740  10.6507  11.1515  11.5755  11.6936  11.8083
    12.3015  12.4993  12.6577  12.9372  13.1349  13.1853  13.5420  14.1086
    14.3416  14.4896  14.7057  14.9621  14.9795  15.0596  15.2000  15.2547
    15.3226  16.0918  29.4615  29.8402  34.7623  35.0708  35.8192  35.9482
    36.6864  36.8806  37.3237  37.7068  38.2299  38.4805  38.7233  39.5268
    39.9307  40.3289  40.6367  41.0314  41.3355  41.7490  42.1696  42.4628
    43.4149  43.5072  44.7764  44.9763  45.8366  46.1055  46.5348  47.0727
    47.2414  47.6213  48.1943  48.5937  49.5091  50.5060  51.3267  52.0377
    52.6471  53.2675  53.4535  53.8349  54.0038  54.2535  54.4989  54.9488

          k = 0.4000 0.3333 0.2857 (  2651 PWs)   bands (ev):

   -90.2703 -90.2691 -45.9159 -45.9107 -45.9082 -45.9034 -45.8971 -45.8956
   -12.6553 -12.4636 -12.2361 -11.7302 -11.5258 -11.4077   8.9703   9.3770
    10.0067  10.5531  10.5603  10.8176  11.0119  11.6040  11.6802  11.8465
    12.1243  12.3267  12.3919  12.9568  13.0842  13.2929  13.5559  13.7767
    14.2585  14.3927  14.5845  14.7540  15.0847  15.1088  15.2037  15.2586
    15.3284  15.3694  29.8869  30.2560  35.1456  35.3658  35.8287  35.8915
    36.3466  36.8151  37.6061  37.7557  38.9646  39.3449  39.4437  39.5162
    39.9482  40.2780  40.5760  40.6727  41.0667  41.5712  41.7570  42.4879
    43.4634  43.8524  44.7456  44.7942  45.1608  45.8421  45.9989  46.5592
    46.6010  47.4635  47.8604  48.5423  48.8944  49.3451  50.5348  51.6607
    51.6973  52.9676  54.3843  54.5262  54.6895  54.9264  55.2514  55.7086

          k = 0.4000 0.3333 0.4286 (  2646 PWs)   bands (ev):

   -90.2618 -90.2562 -45.9120 -45.9082 -45.9057 -45.9012 -45.8985 -45.8941
   -12.4950 -12.3387 -12.1751 -11.8281 -11.6989 -11.5379   9.4263  10.0333
    10.2513  10.4269  10.5525  11.0741  11.2944  11.6114  11.6867  11.7724
    12.0706  12.0921  12.2130  12.6173  12.9042  13.1137  13.2605  13.3813
    14.2254  14.2583  14.4546  14.6675  14.9109  14.9544  15.3364  15.3608
    15.4229  15.4506  30.3966  30.5814  35.1659  35.2267  35.8033  36.0981
    36.3496  36.3647  38.0766  38.2753  38.9201  38.9945  39.3308  39.3970
    40.3542  40.4512  40.9777  41.2295  41.3333  41.3988  42.2650  42.6435
    43.7772  43.8924  44.3311  44.8877  45.0588  45.3098  45.6964  45.9231
    46.4547  47.2015  47.3573  47.6592  48.5043  48.8075  49.2570  50.3486
    51.8904  52.3489  54.8427  55.0445  55.1694  55.2245  55.8010  56.1058

          k = 0.4000-0.5000 0.0000 (  2650 PWs)   bands (ev):

   -90.2722 -90.2720 -45.9140 -45.9139 -45.9113 -45.9111 -45.8899 -45.8897
   -12.8685 -12.4362 -12.0285 -11.9801 -11.6273 -11.0169   7.7236   9.9676
    10.1331  10.4230  10.6289  10.8685  11.5482  11.5947  11.6127  11.6970
    11.7284  12.2826  12.7637  12.8213  12.8858  13.2961  13.5580  13.9793
    14.1434  14.2610  14.3548  14.8968  14.9423  15.1950  15.2873  15.3389
    15.3422  16.5924  29.7252  29.7385  34.1890  35.1657  35.8238  36.5624
    36.9908  37.0532  37.1912  37.5092  37.7479  38.0708  39.0594  39.6140
    39.7086  39.7453  41.1039  41.5002  41.7616  42.3281  42.6064  42.6384
    42.6469  44.3979  44.6393  44.8464  45.3892  45.7485  45.8596  46.8952
    47.0899  47.1383  48.3467  48.4622  49.9263  51.0888  51.3868  52.4494
    52.4973  52.7174  53.1340  53.2431  53.3289  54.0765  54.1800  55.0354

          k = 0.4000-0.5000 0.1429 (  2650 PWs)   bands (ev):

   -90.2708 -90.2686 -45.9118 -45.9117 -45.9097 -45.9097 -45.8931 -45.8930
   -12.7917 -12.4154 -12.0255 -11.9833 -11.6470 -11.1263   8.0589   9.9672
    10.3267  10.4327  10.6024  10.8971  11.4342  11.4781  11.5528  11.7697
    11.8087  12.2416  12.6720  12.7410  13.0120  13.2611  13.3163  13.9461
    14.1836  14.3117  14.5086  14.9404  15.0000  15.0337  15.2292  15.3698
    15.3720  16.0982  29.9033  29.9101  34.4367  35.1121  35.7332  36.5848
    37.0548  37.2613  37.4080  37.7846  38.1074  38.4547  38.9184  39.3864
    39.7034  39.8825  39.9332  41.6329  41.9072  42.2954  42.3477  42.9318
    42.9466  44.3820  44.7938  44.8032  44.9823  45.2712  45.8739  46.8786
    46.9095  47.0708  47.5582  48.4106  49.9035  50.8012  51.1626  51.9965
    52.4276  52.5193  53.0567  53.7063  53.7310  54.1833  54.9187  55.2543

          k = 0.4000-0.5000 0.2857 (  2640 PWs)   bands (ev):

   -90.2487 -90.2480 -45.9092 -45.9092 -45.9014 -45.9013 -45.8934 -45.8933
   -12.5715 -12.3613 -12.0189 -11.9965 -11.6921 -11.4182   9.0096  10.0193
    10.3964  10.4701  10.7934  10.9703  11.4247  11.4457  11.5660  11.7844
    11.8168  12.0897  12.5077  12.5089  12.9431  13.0954  13.2627  13.6215
    14.2309  14.3650  14.4915  14.5897  15.0418  15.0815  15.2719  15.2758
    15.4389  15.4475  30.3750  30.3764  34.9970  35.1032  35.6957  36.3863
    36.6408  36.6764  37.9908  37.9949  38.7870  39.1362  39.2241  39.5533
    39.7990  40.2245  40.3641  41.1137  41.7293  41.7813  42.1513  42.6777
    44.0816  44.1832  44.5756  44.6435  45.1936  45.2618  45.4933  45.8908
    46.5206  46.6718  47.3781  47.8270  48.9697  49.2915  50.0620  50.6230
    51.9965  52.1179  54.3966  54.7097  54.9034  55.2693  55.6793  55.7424

          k = 0.4000-0.5000 0.4286 (  2640 PWs)   bands (ev):

   -90.2454 -90.2454 -45.9072 -45.9071 -45.9005 -45.9003 -45.8957 -45.8957
   -12.3057 -12.2438 -12.0192 -12.0154 -11.8008 -11.7286  10.1015  10.2639
    10.3119  10.4438  11.1026  11.1040  11.5710  11.6311  11.7097  11.7402
    11.7895  11.8991  12.2007  12.3042  12.6296  12.7153  12.9209  12.9990
    14.2665  14.3113  14.5083  14.5246  14.7328  14.7886  15.4639  15.4643
    15.5054  15.5062  30.8709  30.8722  35.2169  35.2856  35.6749  35.8262
    36.0109  36.0818  38.6497  38.6599  39.0192  39.1096  39.1127  39.2535
    40.5158  40.5585  41.0668  41.1119  42.0524  42.1801  42.4162  42.7988
    43.6771  43.8211  44.8000  44.8544  45.2574  45.3161  45.7127  45.7298
    46.4105  46.5147  47.1047  47.1145  47.4643  47.7454  48.4349  48.5632
    52.2255  52.2276  55.2571  55.3066  55.7123  55.7436  55.9767  56.1433

     the Fermi energy is    47.9004 ev

!    total energy              =   -1809.90374209 Ry
     Harris-Foulkes estimate   =   -1809.90374739 Ry
     estimated scf accuracy    <       0.00000682 Ry

     The total energy is the sum of the following terms:

     one-electron contribution =      25.75478348 Ry
     hartree contribution      =     181.99646657 Ry
     xc contribution           =    -176.32024766 Ry
     ewald contribution        =   -1841.02765529 Ry
     smearing contrib. (-TS)   =      -0.30708919 Ry

     convergence has been achieved in   8 iterations

     Forces acting on atoms (Ry/au):

     atom    1 type  1   force =     0.00000000    0.00000000    0.00000000
     atom    2 type  1   force =     0.00000000    0.00000000    0.00000000
     atom    3 type  1   force =     0.00000000    0.00000000    0.00000000
     atom    4 type  1   force =     0.00000000    0.00000000    0.00000000
     atom    5 type  1   force =     0.00000000    0.00000000    0.00000000
     atom    6 type  1   force =     0.00000000    0.00000000    0.00000000
     atom    7 type  2   force =     0.00000000    0.00000000    0.00000000
     atom    8 type  2   force =     0.00000000    0.00000000    0.00000000

     Total force =     0.000000     Total SCF correction =     0.000000


     entering subroutine stress ...

          total   stress  (Ry/bohr**3)                   (kbar)     P= 4892.72
   0.03326001   0.00000000   0.00000000       4892.72      0.00      0.00
   0.00000000   0.03326001   0.00000000          0.00   4892.72      0.00
   0.00000000   0.00000000   0.03326001          0.00      0.00   4892.72


     BFGS Geometry Optimization

     number of scf cycles    =   1
     number of bfgs steps    =   0

     enthalpy new            =   -1809.9037420942 Ry

     new trust radius        =       0.5000000000 bohr
     new conv_thr            =       0.0001000000 Ry

     new unit-cell volume =    828.02266 a.u.^3 (   122.70030 Ang^3 )

CELL_PARAMETERS (alat=  8.53457320)
   1.100269143   0.000000000   0.000000000
   0.000000000   1.100269143   0.000000000
   0.000000000   0.000000000   1.100269143

ATOMIC_POSITIONS (crystal)
Cr       0.000000000   0.500000000   0.250000000
Cr       0.000000000   0.500000000   0.750000000
Cr       0.500000000   0.750000000   0.000000000
Cr       0.500000000   0.250000000   0.000000000
Cr       0.750000000   0.000000000   0.500000000
Cr       0.250000000   0.000000000   0.500000000
Si       0.500000000   0.500000000   0.500000000
Si       0.000000000   0.000000000   0.000000000



     Writing output data file Prototype-La-cP8-Cr3Si.save
     NEW-OLD atomic charge density approx. for the potential
     NEW k-points:
        k(    1) = (   0.0000000   0.0000000   0.0000000), wk =   0.0095238
        k(    2) = (   0.0000000   0.0000000   0.1298384), wk =   0.0190476
        k(    3) = (   0.0000000   0.0000000   0.2596767), wk =   0.0190476
        k(    4) = (   0.0000000   0.0000000   0.3895151), wk =   0.0190476
        k(    5) = (   0.0000000   0.1514781   0.0000000), wk =   0.0190476
        k(    6) = (   0.0000000   0.1514781   0.1298384), wk =   0.0380952
        k(    7) = (   0.0000000   0.1514781   0.2596767), wk =   0.0380952
        k(    8) = (   0.0000000   0.1514781   0.3895151), wk =   0.0380952
        k(    9) = (   0.0000000   0.3029562   0.0000000), wk =   0.0190476
        k(   10) = (   0.0000000   0.3029562   0.1298384), wk =   0.0380952
        k(   11) = (   0.0000000   0.3029562   0.2596767), wk =   0.0380952
        k(   12) = (   0.0000000   0.3029562   0.3895151), wk =   0.0380952
        k(   13) = (   0.0000000  -0.4544343   0.0000000), wk =   0.0095238
        k(   14) = (   0.0000000  -0.4544343   0.1298384), wk =   0.0190476
        k(   15) = (   0.0000000  -0.4544343   0.2596767), wk =   0.0190476
        k(   16) = (   0.0000000  -0.4544343   0.3895151), wk =   0.0190476
        k(   17) = (   0.1817737   0.0000000   0.0000000), wk =   0.0190476
        k(   18) = (   0.1817737   0.0000000   0.1298384), wk =   0.0380952
        k(   19) = (   0.1817737   0.0000000   0.2596767), wk =   0.0380952
        k(   20) = (   0.1817737   0.0000000   0.3895151), wk =   0.0380952
        k(   21) = (   0.1817737   0.1514781   0.0000000), wk =   0.0380952
        k(   22) = (   0.1817737   0.1514781   0.1298384), wk =   0.0761905
        k(   23) = (   0.1817737   0.1514781   0.2596767), wk =   0.0761905
        k(   24) = (   0.1817737   0.1514781   0.3895151), wk =   0.0761905
        k(   25) = (   0.1817737   0.3029562   0.0000000), wk =   0.0380952
        k(   26) = (   0.1817737   0.3029562   0.1298384), wk =   0.0761905
        k(   27) = (   0.1817737   0.3029562   0.2596767), wk =   0.0761905
        k(   28) = (   0.1817737   0.3029562   0.3895151), wk =   0.0761905
        k(   29) = (   0.1817737  -0.4544343   0.0000000), wk =   0.0190476
        k(   30) = (   0.1817737  -0.4544343   0.1298384), wk =   0.0380952
        k(   31) = (   0.1817737  -0.4544343   0.2596767), wk =   0.0380952
        k(   32) = (   0.1817737  -0.4544343   0.3895151), wk =   0.0380952
        k(   33) = (   0.3635474   0.0000000   0.0000000), wk =   0.0190476
        k(   34) = (   0.3635474   0.0000000   0.1298384), wk =   0.0380952
        k(   35) = (   0.3635474   0.0000000   0.2596767), wk =   0.0380952
        k(   36) = (   0.3635474   0.0000000   0.3895151), wk =   0.0380952
        k(   37) = (   0.3635474   0.1514781   0.0000000), wk =   0.0380952
        k(   38) = (   0.3635474   0.1514781   0.1298384), wk =   0.0761905
        k(   39) = (   0.3635474   0.1514781   0.2596767), wk =   0.0761905
        k(   40) = (   0.3635474   0.1514781   0.3895151), wk =   0.0761905
        k(   41) = (   0.3635474   0.3029562   0.0000000), wk =   0.0380952
        k(   42) = (   0.3635474   0.3029562   0.1298384), wk =   0.0761905
        k(   43) = (   0.3635474   0.3029562   0.2596767), wk =   0.0761905
        k(   44) = (   0.3635474   0.3029562   0.3895151), wk =   0.0761905
        k(   45) = (   0.3635474  -0.4544343   0.0000000), wk =   0.0190476
        k(   46) = (   0.3635474  -0.4544343   0.1298384), wk =   0.0380952
        k(   47) = (   0.3635474  -0.4544343   0.2596767), wk =   0.0380952
        k(   48) = (   0.3635474  -0.4544343   0.3895151), wk =   0.0380952

     total cpu time spent up to now is      229.7 secs

     Self-consistent Calculation

     iteration #  1     ecut=    40.00 Ry     beta=0.70
     CG style diagonalization
     c_bands:  4 eigenvalues not converged
     c_bands:  3 eigenvalues not converged
     c_bands:  1 eigenvalues not converged
     c_bands:  2 eigenvalues not converged
     c_bands:  3 eigenvalues not converged
     c_bands:  2 eigenvalues not converged
     c_bands:  2 eigenvalues not converged
     c_bands:  3 eigenvalues not converged
     c_bands:  2 eigenvalues not converged
     c_bands:  1 eigenvalues not converged
     c_bands:  4 eigenvalues not converged
     c_bands:  1 eigenvalues not converged
     c_bands:  2 eigenvalues not converged
     c_bands:  1 eigenvalues not converged
     c_bands:  3 eigenvalues not converged
     c_bands:  4 eigenvalues not converged
     c_bands:  1 eigenvalues not converged
     c_bands:  1 eigenvalues not converged
     c_bands:  1 eigenvalues not converged
     c_bands:  2 eigenvalues not converged
     c_bands:  1 eigenvalues not converged
     c_bands:  2 eigenvalues not converged
     c_bands:  1 eigenvalues not converged
     c_bands:  1 eigenvalues not converged
     c_bands:  4 eigenvalues not converged
     c_bands:  1 eigenvalues not converged
     c_bands:  1 eigenvalues not converged
     c_bands:  2 eigenvalues not converged
     c_bands:  1 eigenvalues not converged
     c_bands:  3 eigenvalues not converged
     c_bands:  3 eigenvalues not converged
     c_bands:  2 eigenvalues not converged
     c_bands:  1 eigenvalues not converged
     c_bands:  1 eigenvalues not converged
     c_bands:  1 eigenvalues not converged
     c_bands:  1 eigenvalues not converged
     ethr =  1.00E-06,  avg # of iterations = 21.4

     total cpu time spent up to now is      307.8 secs

     total energy              =   -1805.51713387 Ry
     Harris-Foulkes estimate   =   -1825.82264198 Ry
     estimated scf accuracy    <      26.12690581 Ry

     iteration #  2     ecut=    40.00 Ry     beta=0.70
     CG style diagonalization
     ethr =  1.00E-02,  avg # of iterations =  4.0

     total cpu time spent up to now is      322.3 secs

     total energy              =   -1812.78493920 Ry
     Harris-Foulkes estimate   =   -1813.86253604 Ry
     estimated scf accuracy    <       1.58610754 Ry

     iteration #  3     ecut=    40.00 Ry     beta=0.70
     CG style diagonalization
     ethr =  1.09E-03,  avg # of iterations =  3.8

     total cpu time spent up to now is      336.2 secs

     total energy              =   -1813.16664792 Ry
     Harris-Foulkes estimate   =   -1813.17213393 Ry
     estimated scf accuracy    <       0.01088681 Ry

     iteration #  4     ecut=    40.00 Ry     beta=0.70
     CG style diagonalization
     c_bands:  2 eigenvalues not converged
     c_bands:  1 eigenvalues not converged
     c_bands:  2 eigenvalues not converged
     c_bands:  2 eigenvalues not converged
     c_bands:  2 eigenvalues not converged
     c_bands:  1 eigenvalues not converged
     c_bands:  1 eigenvalues not converged
     c_bands:  1 eigenvalues not converged
     c_bands:  1 eigenvalues not converged
     c_bands:  2 eigenvalues not converged
     c_bands:  3 eigenvalues not converged
     c_bands:  2 eigenvalues not converged
     c_bands:  1 eigenvalues not converged
     c_bands:  2 eigenvalues not converged
     c_bands:  1 eigenvalues not converged
     c_bands:  1 eigenvalues not converged
     c_bands:  1 eigenvalues not converged
     ethr =  7.46E-06,  avg # of iterations =  5.2

     total cpu time spent up to now is      355.9 secs

     total energy              =   -1813.17744390 Ry
     Harris-Foulkes estimate   =   -1813.18098804 Ry
     estimated scf accuracy    <       0.00572502 Ry

     iteration #  5     ecut=    40.00 Ry     beta=0.70
     CG style diagonalization
     c_bands:  1 eigenvalues not converged
     c_bands:  1 eigenvalues not converged
     ethr =  3.92E-06,  avg # of iterations =  3.7

     total cpu time spent up to now is      370.5 secs

     total energy              =   -1813.17893279 Ry
     Harris-Foulkes estimate   =   -1813.17924380 Ry
     estimated scf accuracy    <       0.00057707 Ry

     iteration #  6     ecut=    40.00 Ry     beta=0.70
     CG style diagonalization
     ethr =  3.95E-07,  avg # of iterations =  3.5

     total cpu time spent up to now is      383.3 secs

     End of self-consistent calculation

          k = 0.0000 0.0000 0.0000 (  2601 PWs)   bands (ev):

  -100.8889-100.7037 -58.2035 -58.2035 -58.2035 -58.1998 -58.1998 -58.1998
   -23.6231 -23.4023 -23.4023 -22.7058 -22.7058 -22.7058  -1.0750  -1.0750
    -0.6070   0.6796   0.6796   0.6796   1.2304   1.2304   1.2304   1.6468
     1.6468   1.6468   1.8024   1.8024   1.8024   2.4759   2.4759   2.6894
     2.6894   3.0393   3.0393   3.0393   3.1345   3.1345   3.1345   3.5694
     3.5694   3.5694  18.1534  18.7767  24.9046  24.9046  24.9046  25.1542
    25.1542  25.1542  27.1034  27.1034  27.1702  27.6701  29.0958  29.0958
    29.0958  29.8261  29.8261  29.8261  30.2957  30.2957  32.8401  32.8401
    32.8401  33.7583  35.2854  35.2854  35.7813  35.7813  35.7813  35.8045
    35.8045  35.8045  36.7760  37.1626  37.1626  37.1626  37.3522  37.3522
    37.5543  37.5543  37.5543  40.8176  40.8176  40.8176  41.6889  41.6894

          k = 0.0000 0.0000 0.1298 (  2657 PWs)   bands (ev):

  -101.0525-100.9111 -58.2148 -58.2148 -58.2121 -58.2048 -58.2048 -58.2046
   -23.6106 -23.4140 -23.3754 -22.7667 -22.7259 -22.7259  -1.0712  -1.0003
    -0.5568   0.6442   0.6442   0.7140   1.2263   1.2698   1.2698   1.6166
     1.6363   1.6554   1.6554   1.8121   1.8121   2.4819   2.4981   2.6634
     2.7081   2.9497   2.9497   3.0230   3.0498   3.0498   3.0911   3.3331
     3.5810   3.5810  18.2326  18.7686  24.8887  25.0192  25.0192  25.2329
    25.2780  25.2780  27.0955  27.1855  27.6365  27.8023  28.4657  28.7494
    28.7494  29.7745  30.0750  30.0750  30.3419  30.3809  32.7863  32.7863
    32.8043  34.0909  34.7665  34.9098  35.2709  35.2709  35.5181  35.5181
    35.8553  35.9680  36.0448  36.2074  36.9721  36.9721  37.1207  37.9068
    37.9068  38.5063  38.8829  41.0904  41.1689  41.1693  41.4443  42.3382

          k = 0.0000 0.0000 0.2597 (  2677 PWs)   bands (ev):

  -101.0863-101.0104 -58.2153 -58.2153 -58.2145 -58.2131 -58.2075 -58.2075
   -23.5770 -23.4405 -23.3025 -22.8730 -22.7299 -22.7299  -1.0229  -0.9127
    -0.1698   0.5853   0.5853   0.7967   1.2811   1.3166   1.4057   1.4057
     1.5518   1.7062   1.7062   1.8538   1.8538   2.3181   2.5098   2.7064
     2.7157   2.7359   2.7359   2.9024   2.9961   2.9961   3.0317   3.0750
     3.6017   3.6017  18.4991  18.7669  24.5404  25.3114  25.3114  25.5651
    25.5651  25.9641  27.0589  27.2172  27.4466  28.1709  28.4208  28.4208
    28.9547  29.5949  29.9885  29.9885  30.3019  30.3896  32.1334  32.7154
    32.7154  34.1691  34.3769  34.5145  34.5145  34.5989  35.1337  35.3088
    35.3088  35.8451  36.3355  36.5164  36.5164  36.5403  36.6365  38.2939
    38.2939  39.5093  39.7121  41.1179  41.6826  41.6835  41.8200  41.8243

          k = 0.0000 0.0000 0.3895 (  2658 PWs)   bands (ev):

  -100.9875-100.9836 -58.2103 -58.2103 -58.2097 -58.2094 -58.2094 -58.2067
   -23.5243 -23.4702 -23.1733 -23.0191 -22.7274 -22.7274  -0.9659  -0.9208
     0.5496   0.5496   0.5561   0.9557   1.0389   1.3653   1.4594   1.4971
     1.4971   1.5681   1.7404   1.7404   2.0110   2.0110   2.5089   2.5089
     2.5775   2.6062   2.8182   2.8786   2.9708   2.9708   3.0481   3.0704
     3.6141   3.6141  18.7388  18.7887  24.6813  25.4486  25.6286  25.6286
    25.7509  25.7509  27.2002  27.2133  27.9953  28.4766  28.4766  28.6936
    29.2192  29.4192  29.4192  29.5111  30.1953  30.3368  31.9566  32.6617
    32.6617  33.7716  33.8827  33.9840  33.9987  33.9987  34.9760  35.6612
    35.6718  35.6718  36.1965  36.1965  36.5283  36.6196  37.7177  38.1413
    38.1413  39.5995  39.6105  40.1243  41.6258  41.6279  41.6730  41.8066

          k = 0.0000 0.1515 0.0000 (  2653 PWs)   bands (ev):

  -101.0286-100.9111 -58.2138 -58.2138 -58.2101 -58.2048 -58.2048 -58.2046
   -23.6035 -23.4145 -23.3658 -22.7805 -22.7263 -22.7263  -1.0645  -0.9764
    -0.5223   0.6356   0.6356   0.7309   1.2333   1.2935   1.2935   1.5877
     1.6090   1.6632   1.6632   1.8181   1.8181   2.4875   2.4946   2.6714
     2.7243   2.9240   2.9240   3.0244   3.0449   3.0449   3.0893   3.2575
     3.5876   3.5876  18.2746  18.7688  24.8181  25.0587  25.0587  25.3199
    25.3199  25.3452  27.0931  27.1937  27.8125  27.8489  28.2850  28.6773
    28.6773  29.7559  30.1065  30.1065  30.3483  30.3916  32.7627  32.7727
    32.7727  34.2149  34.6553  34.8194  35.1407  35.1407  35.4523  35.4523
    35.6643  35.8311  36.0997  36.2807  36.8999  36.8999  37.0884  37.9970
    37.9970  38.7487  39.0535  41.1875  41.2987  41.2989  41.4446  41.8574

          k = 0.0000 0.1515 0.1298 (  2662 PWs)   bands (ev):

  -101.0783-100.9237 -58.2160 -58.2148 -58.2123 -58.2102 -58.2040 -58.2023
   -23.5943 -23.4009 -23.3625 -22.7816 -22.7659 -22.7275  -1.0164  -0.8770
    -0.4909   0.6192   0.6673   0.7193   1.2190   1.3074   1.3747   1.5898
     1.5959   1.6620   1.6749   1.6829   1.8228   2.5124   2.5228   2.6898
     2.7635   2.8995   2.9216   2.9568   2.9594   3.0365   3.0519   3.2651
     3.3570   3.6060  18.3794  18.7808  24.9198  25.0857  25.1690  25.1777
    25.4511  25.6309  27.1533  27.6437  27.8362  27.9636  27.9898  28.4905
    28.5111  29.7158  29.8781  30.2307  30.3540  30.5949  32.4557  32.6091
    32.8725  34.1186  34.4577  34.6227  34.9247  34.9940  35.2012  35.5229
    35.5965  35.7112  35.8221  36.0840  36.3477  36.9814  37.0511  38.0275
    38.1954  39.3260  39.9067  41.2767  41.3184  41.3510  41.5949  41.8930

          k = 0.0000 0.1515 0.2597 (  2666 PWs)   bands (ev):

  -101.0428-100.9874 -58.2135 -58.2132 -58.2127 -58.2106 -58.2075 -58.2051
   -23.5531 -23.4129 -23.2984 -22.8754 -22.7814 -22.7289  -0.9710  -0.7230
    -0.1680   0.5876   0.6562   0.7870   1.2576   1.2689   1.4329   1.4543
     1.5961   1.6653   1.7203   1.7555   1.8728   2.3446   2.5593   2.6955
     2.7394   2.7486   2.7773   2.8835   2.9287   2.9737   3.0033   3.0391
     3.3002   3.6270  18.6386  18.8180  24.7077  25.2949  25.3595  25.4839
    25.7577  26.2268  27.1322  27.4367  27.8170  28.1581  28.1855  28.3497
    28.9953  29.5970  29.6861  30.1018  30.2990  30.6870  31.7878  32.3118
    32.7159  33.3676  33.9891  34.4015  34.6045  34.7280  34.8188  35.1403
    35.3810  35.7068  35.8521  36.2827  36.3169  36.6904  37.0279  38.2457
    38.4224  39.8927  40.6419  41.1044  41.2140  41.4084  41.9374  41.9427

          k = 0.0000 0.1515 0.3895 (  2658 PWs)   bands (ev):

  -101.0068-100.9683 -58.2121 -58.2114 -58.2113 -58.2083 -58.2081 -58.2046
   -23.5014 -23.4432 -23.1750 -23.0201 -22.7797 -22.7313  -0.9426  -0.6982
     0.5236   0.5649   0.6608   0.9280   1.0579   1.3255   1.3900   1.4116
     1.5831   1.6444   1.7288   1.7509   1.9169   2.0212   2.4897   2.5062
     2.5972   2.6780   2.8190   2.8864   2.9373   2.9484   2.9679   3.0388
     3.3158   3.6416  18.8460  18.8806  24.7910  25.3342  25.5851  25.8199
    25.8999  25.9585  27.1964  27.8168  27.9890  28.2632  28.2701  28.7106
    29.1426  29.2974  29.6452  29.7050  30.2842  30.8094  31.7233  32.0993
    32.6049  32.9201  33.1993  33.6966  34.1858  34.4699  34.6843  35.1610
    35.3111  35.3756  35.8998  36.2919  36.4849  37.1722  37.7250  38.1899
    38.3779  39.7058  40.0100  40.7399  40.8305  41.0904  41.7521  42.6027

          k = 0.0000 0.3030 0.0000 (  2677 PWs)   bands (ev):

  -101.0864-101.0083 -58.2150 -58.2150 -58.2137 -58.2099 -58.2099 -58.2097
   -23.5608 -23.4523 -23.2635 -22.9254 -22.7271 -22.7271  -1.0031  -0.9066
     0.0368   0.5687   0.5687   0.8344   1.2144   1.3078   1.4414   1.4414
     1.5254   1.7181   1.7181   1.9023   1.9023   2.1228   2.5340   2.6493
     2.6493   2.6638   2.7529   2.8809   2.9830   2.9830   3.0320   3.0711
     3.6010   3.6010  18.5911  18.7737  24.5143  25.4245  25.4245  25.6546
    25.6546  25.9876  27.1225  27.2182  27.3480  28.3338  28.3926  28.3926
    29.4522  29.4928  29.8204  29.8204  30.2138  30.3739  31.8109  32.6951
    32.6951  34.0309  34.2215  34.3033  34.3033  34.6883  34.7834  35.3821
    35.3821  36.3148  36.3771  36.3940  36.3940  36.4110  36.5916  38.2930
    38.2930  39.5627  39.8021  41.0186  41.6853  41.7894  42.0423  42.1149

          k = 0.0000 0.3030 0.1298 (  2660 PWs)   bands (ev):

  -101.0108-100.9784 -58.2129 -58.2114 -58.2109 -58.2101 -58.2077 -58.2045
   -23.5383 -23.4270 -23.2621 -22.9199 -22.7684 -22.7296  -0.9648  -0.7697
     0.0443   0.5771   0.6303   0.8329   1.2085   1.2810   1.4301   1.4536
     1.5896   1.6839   1.7341   1.8211   1.9129   2.1483   2.5795   2.6358
     2.6575   2.7050   2.7733   2.8885   2.9556   2.9587   2.9912   3.0490
     3.3832   3.6321  18.6951  18.8249  24.6367  25.4089  25.4653  25.5574
    25.8029  26.1631  27.1698  27.4105  27.6585  28.2172  28.2277  28.4368
    29.4300  29.5107  29.6064  29.9287  30.2339  30.6810  31.6079  32.3290
    32.6826  33.3283  33.8080  34.3606  34.5010  34.5603  34.7673  35.1313
    35.3273  35.7759  35.9389  36.3805  36.5943  36.6647  36.9694  38.1732
    38.3842  39.7944  40.4308  41.0678  41.1965  41.3686  41.7565  42.0093

          k = 0.0000 0.3030 0.2597 (  2658 PWs)   bands (ev):

  -101.0229-100.9574 -58.2123 -58.2118 -58.2106 -58.2078 -58.2077 -58.2046
   -23.5014 -23.3722 -23.2541 -22.9275 -22.8689 -22.7329  -0.9388  -0.2923
     0.0664   0.5859   0.7543   0.8060   1.1908   1.2650   1.3425   1.4131
[...]
    22.3105  22.4347  22.7260  22.7336  23.3268  23.3973  24.1584  24.2327
    24.6560  24.7589  25.3222  25.4200  25.8437  26.0192  26.0555  26.2066
    26.5995  26.6983  27.3515  27.3534  27.6528  27.6765  28.8035  29.0098
    29.1575  29.2266  30.9385  31.3013  31.8077  31.9442  32.5548  33.0929

          k = 0.1679-0.4198 0.2399 (  4478 PWs)   bands (ev):

  -110.3756-110.3752 -65.8464 -65.8464 -65.8439 -65.8437 -65.8394 -65.8393
   -30.9830 -30.9560 -30.8495 -30.8480 -30.7484 -30.7185  -7.2117  -7.0199
    -6.4183  -6.4096  -6.3214  -6.3185  -6.2753  -6.2366  -6.1257  -6.1167
    -6.0406  -5.9956  -5.9163  -5.8800  -5.8614  -5.8536  -5.5493  -5.3437
    -5.0147  -5.0103  -4.9792  -4.9673  -4.9483  -4.9335  -4.9181  -4.9126
    -4.9042  -4.9037  11.8955  11.8962  18.5494  18.7905  19.2245  19.3151
    19.5667  19.6231  21.1984  21.3719  21.4687  21.8099  21.8667  21.9496
    22.4758  22.6075  22.8603  22.8859  23.2314  23.2847  23.8277  23.9190
    24.4452  24.5776  25.1691  25.3527  25.5448  25.8955  25.9385  26.0346
    26.4617  26.4928  26.9474  27.0717  27.4349  27.5269  28.3305  28.6548
    29.3792  29.3834  31.5918  32.0262  32.1416  32.4141  32.5854  33.2548

          k = 0.1679-0.4198 0.3598 (  4504 PWs)   bands (ev):

  -110.4075-110.4074 -65.8506 -65.8505 -65.8492 -65.8492 -65.8457 -65.8457
   -30.9811 -30.8963 -30.8517 -30.8493 -30.8096 -30.7191  -7.2086  -6.5971
    -6.4178  -6.3755  -6.3456  -6.3159  -6.2732  -6.1694  -6.1631  -6.1114
    -6.1040  -6.0218  -5.9872  -5.9564  -5.8560  -5.8496  -5.8458  -5.3557
    -5.0264  -5.0197  -5.0103  -4.9781  -4.9504  -4.9247  -4.9240  -4.9109
    -4.8929  -4.8923  11.9584  11.9586  18.3882  19.0210  19.3576  19.4172
    19.6123  19.6439  21.2359  21.2784  21.3814  21.5148  22.0681  22.5488
    22.6403  22.9667  22.9917  23.2448  23.4022  23.4465  23.5151  23.7723
    24.0926  24.2706  24.7528  25.0129  25.2836  25.4635  25.6735  26.0695
    26.3579  26.5132  26.6236  26.8646  27.4581  27.5826  27.7471  28.4194
    29.3641  29.3745  31.9187  32.5045  32.7829  32.8174  33.0213  33.3635

          k = 0.3358 0.0000 0.0000 (  4492 PWs)   bands (ev):

  -110.3932-110.3842 -65.8508 -65.8508 -65.8465 -65.8456 -65.8456 -65.8360
   -31.0292 -31.0046 -30.8923 -30.7982 -30.6866 -30.6866  -7.4373  -7.4026
    -6.6632  -6.4788  -6.4788  -6.3214  -6.2073  -6.0677  -6.0677  -6.0451
    -5.9838  -5.9327  -5.9257  -5.9257  -5.8399  -5.8399  -5.1319  -5.1319
    -5.0133  -5.0017  -4.9457  -4.9335  -4.9184  -4.9184  -4.9053  -4.9053
    -4.8994  -4.8857  11.6279  11.7612  18.3429  18.8419  19.0667  19.0667
    19.3777  19.3777  20.6932  20.7596  21.2232  21.7993  21.7993  22.1386
    22.4010  22.4010  22.5135  22.5712  22.9059  23.2535  24.1021  25.1278
    25.1278  25.7185  25.9657  25.9737  25.9804  25.9804  26.0603  26.4941
    27.1228  27.1228  27.6694  27.7360  27.7733  27.7733  28.0209  28.7614
    28.7614  29.9434  30.0404  30.7658  32.0692  32.0692  32.2025  33.3374

          k = 0.3358 0.0000 0.1199 (  4484 PWs)   bands (ev):

  -110.3838-110.3754 -65.8508 -65.8472 -65.8469 -65.8426 -65.8397 -65.8388
   -31.0224 -30.9950 -30.8928 -30.7985 -30.7030 -30.6867  -7.4201  -7.3141
    -6.6668  -6.4685  -6.4507  -6.3245  -6.2099  -6.1088  -6.0731  -6.0414
    -5.9570  -5.9564  -5.9143  -5.9038  -5.8583  -5.8352  -5.2285  -5.1382
    -5.0106  -4.9933  -4.9463  -4.9446  -4.9379  -4.9296  -4.9177  -4.9157
    -4.8882  -4.8794  11.6739  11.7867  18.3869  18.7685  19.0542  19.1688
    19.4432  19.4716  20.7104  20.9997  21.2726  21.5958  21.7253  22.0459
    22.3271  22.5519  22.6680  22.6781  22.9668  23.3915  24.0326  24.8308
    24.9816  25.4352  25.5130  25.6715  26.0643  26.1577  26.2706  26.3927
    26.8210  26.9734  27.3958  27.7154  27.7566  28.0137  28.0837  28.7575
    28.8145  30.1483  30.5300  30.8180  31.7256  31.9200  32.3143  33.2267

          k = 0.3358 0.0000 0.2399 (  4482 PWs)   bands (ev):

  -110.3900-110.3672 -65.8493 -65.8492 -65.8465 -65.8437 -65.8410 -65.8340
   -31.0150 -30.9585 -30.8929 -30.8001 -30.7477 -30.6868  -7.4130  -7.0278
    -6.6706  -6.4463  -6.3930  -6.3394  -6.2004  -6.1404  -6.0909  -6.0901
    -5.9889  -5.9222  -5.8908  -5.8804  -5.8739  -5.8235  -5.5512  -5.1583
    -5.0179  -4.9940  -4.9882  -4.9498  -4.9437  -4.9277  -4.9213  -4.9118
    -4.8838  -4.8707  11.7731  11.8512  18.3395  18.7473  19.0761  19.4327
    19.5963  19.6128  20.6916  21.1799  21.3381  21.5429  21.8271  21.9822
    22.5078  22.7857  22.8754  23.0060  23.0795  23.3933  23.8109  24.3138
    24.4965  24.8009  25.2317  25.4466  25.8300  25.8379  26.1866  26.5654
    26.6429  26.8963  27.0106  27.1065  27.8947  27.9034  28.3723  28.8292
    28.9158  29.9924  30.8205  31.3837  31.6214  32.0415  32.3695  33.2738

          k = 0.3358 0.0000 0.3598 (  4487 PWs)   bands (ev):

  -110.3909-110.3804 -65.8525 -65.8478 -65.8458 -65.8445 -65.8398 -65.8396
   -31.0113 -30.9164 -30.8766 -30.8190 -30.7930 -30.6871  -7.4093  -6.7021
    -6.5774  -6.4257  -6.3545  -6.3453  -6.1762  -6.1506  -6.1315  -6.1210
    -6.0686  -5.9687  -5.9350  -5.8956  -5.8674  -5.8216  -5.8114  -5.1814
    -5.0261  -5.0210  -5.0172  -4.9431  -4.9423  -4.9360  -4.9029  -4.8988
    -4.8817  -4.8667  11.8676  11.8906  18.1751  18.8413  19.2232  19.5583
    19.6853  19.7436  20.7615  21.0913  21.1727  21.3321  22.0294  22.4340
    22.9771  23.0160  23.0456  23.2377  23.4280  23.4850  23.7423  23.8876
    23.9339  24.3290  24.9253  25.0154  25.5494  25.5537  25.7899  26.2472
    26.7106  26.8331  26.9071  27.0177  27.9332  28.0198  28.4488  28.5419
    28.7157  29.7685  31.3706  31.5002  31.6234  32.2878  33.2069  33.4388

          k = 0.3358 0.1399 0.0000 (  4486 PWs)   bands (ev):

  -110.3865-110.3776 -65.8499 -65.8471 -65.8464 -65.8442 -65.8408 -65.8401
   -31.0209 -30.9909 -30.8930 -30.7987 -30.7087 -30.6866  -7.4191  -7.2787
    -6.6676  -6.4656  -6.4425  -6.3271  -6.2097  -6.1160  -6.0756  -6.0484
    -5.9620  -5.9435  -5.9141  -5.8995  -5.8638  -5.8336  -5.2670  -5.1409
    -5.0114  -4.9904  -4.9518  -4.9469  -4.9403  -4.9296  -4.9197  -4.9177
    -4.8872  -4.8778  11.6879  11.7950  18.3954  18.7509  19.0500  19.2038
    19.4649  19.5010  20.7068  21.0864  21.2895  21.5412  21.7012  22.0273
    22.3340  22.5903  22.6983  22.7261  22.9780  23.4121  24.0038  24.7486
    24.9412  25.3296  25.4116  25.6481  26.0500  26.1283  26.3274  26.3948
    26.7315  26.9473  27.3409  27.6284  27.7740  28.0081  28.1409  28.8083
    28.8240  30.2102  30.4835  30.9967  31.6467  31.9180  32.2818  33.1912

          k = 0.3358 0.1399 0.1199 (  4479 PWs)   bands (ev):

  -110.3792-110.3690 -65.8481 -65.8473 -65.8466 -65.8434 -65.8411 -65.8335
   -31.0094 -30.9858 -30.8937 -30.7989 -30.7088 -30.7030  -7.3207  -7.2721
    -6.6704  -6.4389  -6.4295  -6.3224  -6.2294  -6.1200  -6.0920  -6.0126
    -5.9924  -5.9685  -5.8942  -5.8797  -5.8680  -5.8448  -5.2688  -5.2330
    -5.0016  -4.9958  -4.9517  -4.9497  -4.9464  -4.9383  -4.9205  -4.9174
    -4.8986  -4.8954  11.7294  11.8261  18.4656  18.7767  19.0782  19.1869
    19.4389  19.6029  20.9606  21.0821  21.3443  21.4884  21.6928  22.0634
    22.2599  22.5854  22.6543  22.8914  23.0371  23.4050  23.8905  24.3753
    24.8296  25.3766  25.5575  25.6669  25.9425  26.0292  26.0815  26.2592
    26.6510  26.8048  27.3895  27.4637  27.5807  27.8129  28.1778  28.8784
    28.9173  30.2336  30.8671  31.0966  31.8807  31.9312  32.5541  32.9352

          k = 0.3358 0.1399 0.2399 (  4486 PWs)   bands (ev):

  -110.3898-110.3788 -65.8513 -65.8494 -65.8468 -65.8436 -65.8419 -65.8358
   -30.9952 -30.9556 -30.8944 -30.8003 -30.7482 -30.7091  -7.2743  -7.0234
    -6.6743  -6.4046  -6.3798  -6.3274  -6.2474  -6.1218  -6.1105  -6.0565
    -5.9937  -5.9693  -5.9120  -5.8673  -5.8535  -5.8474  -5.5481  -5.2798
    -5.0129  -4.9976  -4.9762  -4.9581  -4.9491  -4.9374  -4.9191  -4.9125
    -4.9080  -4.9001  11.8255  11.8887  18.4970  18.8244  19.1391  19.3185
    19.4744  19.7029  21.0196  21.3178  21.3747  21.7007  21.8516  21.9887
    22.4071  22.6819  22.8166  23.0520  23.0858  23.2091  23.6175  23.9697
    24.5962  25.0611  25.2688  25.4567  25.6131  25.9490  26.1062  26.1797
    26.4986  26.6437  27.0233  27.0855  27.4554  27.7335  27.9627  29.0222
    29.1205  29.6678  31.4155  31.7728  32.1920  32.3286  32.4418  33.2266

          k = 0.3358 0.1399 0.3598 (  4497 PWs)   bands (ev):

  -110.4016-110.3951 -65.8512 -65.8502 -65.8494 -65.8472 -65.8427 -65.8415
   -30.9907 -30.9135 -30.8787 -30.8183 -30.7948 -30.7095  -7.2694  -6.6962
    -6.5815  -6.3762  -6.3525  -6.3416  -6.2148  -6.1496  -6.1194  -6.0994
    -6.0693  -5.9810  -5.9530  -5.9134  -5.8533  -5.8400  -5.8306  -5.2941
    -5.0263  -5.0150  -5.0044  -4.9654  -4.9412  -4.9313  -4.9223  -4.9043
    -4.8985  -4.8953  11.9131  11.9325  18.3589  18.9439  19.2769  19.4348
    19.6087  19.6770  21.0778  21.2859  21.3014  21.5313  22.0153  22.4313
    22.7784  22.9149  22.9489  23.0710  23.3011  23.4449  23.5138  23.6562
    24.2422  24.6306  24.7654  25.1810  25.2812  25.7063  25.7651  26.2726
    26.4017  26.5802  26.7649  26.8526  27.5819  27.7271  27.8785  28.8155
    29.1734  29.2714  31.7770  32.0758  32.3892  32.5977  33.0588  33.2829

          k = 0.3358 0.2798 0.0000 (  4479 PWs)   bands (ev):

  -110.3836-110.3683 -65.8499 -65.8481 -65.8452 -65.8416 -65.8398 -65.8355
   -31.0133 -30.9422 -30.8914 -30.8014 -30.7665 -30.6868  -7.4107  -6.9000
    -6.6690  -6.4386  -6.3752  -6.3450  -6.1913  -6.1463  -6.1058  -6.0978
    -6.0036  -5.9279  -5.8986  -5.8726  -5.8501  -5.8206  -5.6940  -5.1663
    -5.0194  -5.0051  -5.0005  -4.9463  -4.9436  -4.9308  -4.9150  -4.9063
    -4.8827  -4.8690  11.8100  11.8703  18.2782  18.7824  19.1162  19.5333
    19.6145  19.6497  20.7023  21.1373  21.2936  21.4667  21.9906  22.1095
    22.6446  22.8606  22.9417  23.1333  23.1722  23.3581  23.7367  24.1491
    24.2630  24.6094  25.2432  25.3185  25.6916  25.7179  26.0169  26.6268
    26.7252  26.7557  26.8876  27.0506  27.8551  27.9449  28.4358  28.8053
    28.8098  29.8694  31.1090  31.3530  31.5794  32.1333  32.7396  33.3295

          k = 0.3358 0.2798 0.1199 (  4493 PWs)   bands (ev):

  -110.4015-110.3836 -65.8515 -65.8499 -65.8485 -65.8469 -65.8430 -65.8376
   -30.9985 -30.9402 -30.8930 -30.8014 -30.7673 -30.7034  -7.3082  -6.8975
    -6.6721  -6.4039  -6.3680  -6.3370  -6.2318  -6.1263  -6.1176  -6.0766
    -6.0057  -5.9541  -5.9193  -5.8644  -5.8486  -5.8403  -5.6891  -5.2511
    -5.0177  -5.0055  -4.9889  -4.9547  -4.9453  -4.9372  -4.9173  -4.9079
    -4.9032  -4.8963  11.8445  11.8983  18.4057  18.8524  19.1633  19.4063
    19.5397  19.6949  20.9467  21.2677  21.3372  21.6177  21.9604  22.1318
    22.5727  22.8135  22.8646  23.0425  23.1265  23.2742  23.6028  23.8531
    24.5070  24.8038  25.1505  25.3668  25.5000  25.8623  26.0013  26.3265
    26.5944  26.7079  26.7764  26.9926  27.5830  27.7854  27.9958  29.0310
    29.1163  29.4455  31.4936  31.7401  32.1422  32.3193  32.7427  33.3859

          k = 0.3358 0.2798 0.2399 (  4494 PWs)   bands (ev):

  -110.4011-110.3902 -65.8505 -65.8500 -65.8473 -65.8457 -65.8439 -65.8412
   -30.9579 -30.9329 -30.8963 -30.8013 -30.7689 -30.7490  -7.0182  -6.8876
    -6.6756  -6.3643  -6.3403  -6.3025  -6.2692  -6.1159  -6.1020  -6.0644
    -6.0137  -6.0003  -5.9561  -5.8814  -5.8643  -5.8412  -5.6848  -5.5499
    -5.0191  -5.0073  -4.9919  -4.9839  -4.9567  -4.9407  -4.9164  -4.9115
    -4.9052  -4.9004  11.9347  11.9688  18.7330  18.9424  19.2130  19.3142
    19.3741  19.6851  21.3892  21.4833  21.8318  21.8692  22.0177  22.1808
    22.3741  22.6047  22.7348  22.9592  23.0735  23.1130  23.4055  23.6579
    24.4283  24.7655  25.0381  25.5375  25.6646  25.7785  25.8493  26.0107
    26.2228  26.4677  26.7324  26.8560  27.0234  27.2109  27.4284  28.3844
    29.5726  29.7889  32.2221  32.3090  32.5653  32.6758  33.2016  33.4469

          k = 0.3358 0.2798 0.3598 (  4496 PWs)   bands (ev):

  -110.4105-110.3855 -65.8522 -65.8493 -65.8472 -65.8453 -65.8451 -65.8421
   -30.9342 -30.9054 -30.8833 -30.8166 -30.7993 -30.7696  -6.8823  -6.6831
    -6.5838  -6.3632  -6.3566  -6.2619  -6.2153  -6.1163  -6.0981  -6.0824
    -6.0725  -6.0180  -5.9959  -5.9386  -5.8906  -5.8749  -5.8482  -5.6873
    -5.0231  -5.0164  -5.0064  -4.9917  -4.9746  -4.9545  -4.9031  -4.9017
    -4.8944  -4.8929  12.0103  12.0266  18.8263  19.0614  19.2218  19.3819
    19.4095  19.5674  21.5869  21.6529  21.8408  21.9290  22.1128  22.2585
    22.4223  22.9000  22.9925  23.0243  23.1278  23.1562  23.3326  23.4564
    24.1090  24.2544  25.0901  25.4591  25.5645  25.7126  25.7498  25.8334
    26.1419  26.2485  26.4399  26.5666  26.7811  26.9571  27.1123  27.7000
    29.9767  29.9916  32.5374  32.6963  32.8503  33.0614  33.4636  33.5625

          k = 0.3358-0.4198 0.0000 (  4484 PWs)   bands (ev):

  -110.3826-110.3825 -65.8493 -65.8492 -65.8443 -65.8442 -65.8399 -65.8397
   -31.0109 -30.9118 -30.8514 -30.8473 -30.7952 -30.6870  -7.4075  -6.6917
    -6.4363  -6.4213  -6.3404  -6.3092  -6.2800  -6.1488  -6.1484  -6.1392
    -6.1075  -6.0062  -5.9355  -5.9019  -5.8651  -5.8178  -5.8040  -5.1852
    -5.0311  -5.0220  -5.0207  -4.9425  -4.9411  -4.9369  -4.8981  -4.8980
    -4.8816  -4.8663  11.8891  11.8898  18.1485  18.8560  19.2653  19.5280
    19.7166  19.7799  20.7923  21.0987  21.1066  21.2929  22.0452  22.4974
    23.0027  23.0828  23.1188  23.2606  23.4373  23.4912  23.8130  23.8692
    24.1966  24.2584  24.4567  24.9107  25.5156  25.5704  25.7095  26.1307
    26.7498  26.7924  26.9359  27.0181  28.0388  28.1201  28.2006  28.6099
    28.6456  29.7538  31.3849  31.4847  31.7820  32.3199  33.2112  33.5517

          k = 0.3358-0.4198 0.1199 (  4488 PWs)   bands (ev):

  -110.3876-110.3876 -65.8477 -65.8476 -65.8466 -65.8464 -65.8417 -65.8415
   -30.9955 -30.9100 -30.8513 -30.8480 -30.7964 -30.7036  -7.3050  -6.6891
    -6.4255  -6.3972  -6.3396  -6.3114  -6.2788  -6.1783  -6.1540  -6.1203
    -6.0901  -6.0069  -5.9451  -5.9186  -5.8525  -5.8360  -5.8212  -5.2633
    -5.0251  -5.0235  -5.0089  -4.9586  -4.9374  -4.9327  -4.9167  -4.8988
    -4.8948  -4.8947  11.9225  11.9237  18.2865  18.9351  19.3027  19.4643
    19.6451  19.7096  21.0328  21.2033  21.2371  21.4455  22.0424  22.5053
    22.7765  22.9740  23.0494  23.1908  23.3431  23.4344  23.5944  23.9120
    24.1956  24.4868  24.5252  24.9634  25.3427  25.5902  25.7230  26.1844
    26.5175  26.6368  26.7510  26.9423  27.6968  27.7684  28.0141  28.9004
    29.0931  29.1105  31.7001  32.1162  32.2386  32.5562  32.9673  33.4566

          k = 0.3358-0.4198 0.2399 (  4502 PWs)   bands (ev):

  -110.4051-110.4049 -65.8514 -65.8513 -65.8483 -65.8482 -65.8447 -65.8446
   -30.9524 -30.9059 -30.8514 -30.8498 -30.7992 -30.7496  -7.0127  -6.6831
    -6.4018  -6.3727  -6.3406  -6.3275  -6.2400  -6.1779  -6.1378  -6.1018
    -6.0711  -6.0224  -5.9711  -5.9568  -5.8760  -5.8731  -5.8445  -5.5546
    -5.0234  -5.0139  -5.0019  -5.0013  -4.9716  -4.9377  -4.9104  -4.9099
    -4.8927  -4.8925  12.0001  12.0003  18.6567  19.0509  19.3343  19.3720
    19.5140  19.5300  21.4876  21.5002  21.7282  21.8685  21.9905  22.3998
    22.4129  22.9023  22.9837  22.9970  23.2623  23.2679  23.5183  23.6334
    24.0721  24.1456  25.1938  25.2610  25.2981  25.5222  25.7952  25.9177
    26.2035  26.3298  26.4324  26.6610  27.0375  27.1934  27.4578  27.7923
    29.8009  29.8149  32.2981  32.7843  32.7976  33.0064  33.3346  33.5089

          k = 0.3358-0.4198 0.3598 (  4512 PWs)   bands (ev):

  -110.4147-110.4145 -65.8525 -65.8524 -65.8505 -65.8504 -65.8473 -65.8472
   -30.9022 -30.8892 -30.8516 -30.8513 -30.8148 -30.8013  -6.6763  -6.5847
    -6.3856  -6.3808  -6.3461  -6.3447  -6.1895  -6.1547  -6.0918  -6.0871
    -6.0679  -6.0502  -6.0155  -6.0017  -5.9342  -5.9293  -5.9025  -5.8713
    -5.0195  -5.0193  -5.0069  -5.0058  -4.9854  -4.9770  -4.8927  -4.8926
    -4.8890  -4.8887  12.0654  12.0659  19.0104  19.1092  19.2963  19.3219
    19.4220  19.4357  21.8084  21.8164  21.8587  21.9096  22.1202  22.1572
    22.8218  23.0385  23.0696  23.0759  23.2185  23.2325  23.4299  23.4316
    23.7717  23.7821  25.4194  25.4698  25.4723  25.5331  25.7457  25.7996
    25.9908  26.1703  26.2236  26.2839  26.4431  26.5160  26.9172  26.9671
    30.3764  30.3775  32.8612  33.0141  33.0299  33.0930  33.4882  33.4932

     the Fermi energy is    26.7663 ev

!    total energy              =   -1816.33144630 Ry
     Harris-Foulkes estimate   =   -1816.33144665 Ry
     estimated scf accuracy    <       0.00000038 Ry

     The total energy is the sum of the following terms:

     one-electron contribution =    -384.84985072 Ry
     hartree contribution      =     281.69526452 Ry
     xc contribution           =    -167.05918645 Ry
     ewald contribution        =   -1545.54958744 Ry
     smearing contrib. (-TS)   =      -0.56808621 Ry

     convergence has been achieved in  13 iterations

     Forces acting on atoms (Ry/au):

     atom    1 type  1   force =     0.00000000    0.00000000    0.00000000
     atom    2 type  1   force =     0.00000000    0.00000000    0.00000000
     atom    3 type  1   force =     0.00000000    0.00000000    0.00000000
     atom    4 type  1   force =     0.00000000    0.00000000    0.00000000
     atom    5 type  1   force =     0.00000000    0.00000000    0.00000000
     atom    6 type  1   force =     0.00000000    0.00000000    0.00000000
     atom    7 type  2   force =     0.00000000    0.00000000    0.00000000
     atom    8 type  2   force =     0.00000000    0.00000000    0.00000000

     Total force =     0.000000     Total SCF correction =     0.000000


     entering subroutine stress ...

          total   stress  (Ry/bohr**3)                   (kbar)     P=  -74.23
  -0.00050459   0.00000000   0.00000000        -74.23      0.00      0.00
   0.00000000  -0.00050459   0.00000000          0.00    -74.23      0.00
   0.00000000   0.00000000  -0.00050459          0.00      0.00    -74.23


     Writing output data file Prototype-La-cP8-Cr3Si.save
 
     init_run     :      7.15s CPU      9.61s WALL (       2 calls)
     electrons    :   1369.47s CPU   1564.06s WALL (       5 calls)
     update_pot   :      1.37s CPU      1.39s WALL (       3 calls)
     forces       :      5.59s CPU      6.08s WALL (       5 calls)
     stress       :     15.26s CPU     15.73s WALL (       5 calls)

     Called by init_run:
     wfcinit      :      6.58s CPU      8.30s WALL (       2 calls)
     potinit      :      0.23s CPU      0.24s WALL (       2 calls)

     Called by electrons:
     c_bands      :   1325.31s CPU   1498.96s WALL (      40 calls)
     sum_band     :     43.90s CPU     50.91s WALL (      40 calls)
     v_of_rho     :      0.06s CPU      0.06s WALL (      45 calls)
     mix_rho      :      0.05s CPU      0.06s WALL (      40 calls)

     Called by c_bands:
     init_us_2    :      2.46s CPU      3.25s WALL (    4416 calls)
     ccgdiagg     :   1189.07s CPU   1322.94s WALL (    2300 calls)
     wfcrot       :    139.88s CPU    178.96s WALL (    2348 calls)

     Called by *cgdiagg:
     h_psi        :    927.63s CPU   1074.58s WALL ( 1025175 calls)
     cdiaghg      :      7.47s CPU      7.96s WALL (    2348 calls)

     Called by h_psi:
     add_vuspsi   :    115.58s CPU    126.23s WALL ( 1025175 calls)

     General routines
     calbec       :    291.15s CPU    304.84s WALL ( 2048482 calls)
     fft          :      0.10s CPU      0.11s WALL (     203 calls)
     fftw         :    628.13s CPU    724.30s WALL ( 2627862 calls)
     davcio       :      2.10s CPU      4.63s WALL (    6336 calls)
 
     Parallel routines
     fft_scatter  :    256.04s CPU    297.18s WALL ( 2628065 calls)
 
     PWSCF        : 23m19.55s CPU    26m40.50s WALL

 
   This run was terminated on:  19:11:56  22Mar2018            

=------------------------------------------------------------------------------=
   JOB DONE.
=------------------------------------------------------------------------------=
