
     Program PWSCF v.5.0.2 starts on 22Mar2018 at 21:15: 6 

     This program is part of the open-source Quantum ESPRESSO suite
     for quantum simulation of materials; please cite
         "P. Giannozzi et al., J. Phys.:Condens. Matter 21 395502 (2009);
          URL http://www.quantum-espresso.org", 
     in publications or presentations arising from this work. More details at
     http://www.quantum-espresso.org/quote.php

     Parallel version (MPI), running on     4 processors
     R & G space division:  proc/nbgrp/npool/nimage =       4

     Current dimensions of program PWSCF are:
     Max number of different atomic species (ntypx) = 10
     Max number of k-points (npk) =  40000
     Max angular momentum in pseudopotentials (lmaxx) =  3
     Waiting for input...
     Reading input from standard input

     Subspace diagonalization in iterative solution of the eigenvalue problem:
     a serial algorithm will be used

 
     Parallelization info
     --------------------
     sticks:   dense  smooth     PW     G-vecs:    dense   smooth      PW
     Min          93      93     30                 1717     1717     310
     Max          94      94     31                 1720     1720     313
     Sum         373     373    121                 6871     6871    1247
 


     bravais-lattice index     =            0
     lattice parameter (alat)  =       5.4125  a.u.
     unit-cell volume          =     202.7222 (a.u.)^3
     number of atoms/cell      =            2
     number of atomic types    =            2
     number of electrons       =        31.00
     number of Kohn-Sham states=           20
     kinetic-energy cutoff     =      40.0000  Ry
     charge density cutoff     =     160.0000  Ry
     convergence threshold     =      1.0E-04
     mixing beta               =       0.7000
     number of iterations used =            8  plain     mixing
     Exchange-correlation      = SLA-PZ-NOGX-NOGC ( 1 1 0 0 0)
     EXX-fraction              =        0.00
     nstep                     =           50


     celldm(1)=   5.412493  celldm(2)=   0.000000  celldm(3)=   0.000000
     celldm(4)=   0.000000  celldm(5)=   0.000000  celldm(6)=   0.000000

     crystal axes: (cart. coord. in units of alat)
               a(1) = (   1.000000   0.000000   0.000000 )  
               a(2) = (   0.000000   1.000000   0.000000 )  
               a(3) = (   0.000000   0.000000   1.278525 )  

     reciprocal axes: (cart. coord. in units 2 pi/alat)
               b(1) = (  1.000000  0.000000  0.000000 )  
               b(2) = (  0.000000  1.000000  0.000000 )  
               b(3) = (  0.000000  0.000000  0.782151 )  


     PseudoPot. # 1 for Eu read from file:
     /home/cwx6513/pp.La/Eu.UPF
     MD5 check sum: 5efdbbfc50c6a10138933a6429836ad2
     Pseudo is Norm-conserving, Zval = 17.0
     Generated in analytical, separable form
     Using radial grid of 1261 points,  6 beta functions with: 
                l(1) =   0
                l(2) =   0
                l(3) =   1
                l(4) =   1
                l(5) =   2
                l(6) =   3

     PseudoPot. # 2 for Nd read from file:
     /home/cwx6513/pp.La/Nd.UPF
     MD5 check sum: c66c5b6abe7b5840ced9b1e244e3bed6
     Pseudo is Norm-conserving, Zval = 14.0
     Generated in analytical, separable form
     Using radial grid of 1257 points,  6 beta functions with: 
                l(1) =   0
                l(2) =   0
                l(3) =   1
                l(4) =   1
                l(5) =   2
                l(6) =   3

     atomic species   valence    mass     pseudopotential
        Cu            17.00    63.54600     Eu( 1.00)
        Au            14.00   196.96600     Nd( 1.00)

     16 Sym. Ops., with inversion, found



   Cartesian axes

     site n.     atom                  positions (alat units)
         1           Cu  tau(   1) = (   0.5000000   0.5000000   0.6392626  )
         2           Au  tau(   2) = (   0.0000000   0.0000000   0.0000000  )

     number of k points=   100  gaussian smearing, width (Ry)=  0.1000

     Number of k-points >= 100: set verbosity='high' to print them.

     Dense  grid:     6871 G-vectors     FFT dimensions: (  24,  24,  27)

     Largest allocated arrays     est. size (Mb)     dimensions
        Kohn-Sham Wavefunctions         0.07 Mb     (    228,   20)
        NL pseudopotentials             0.14 Mb     (    228,   40)
        Each V/rho on FFT grid          0.06 Mb     (   4032)
        Each G-vector array             0.01 Mb     (   1720)
        G-vector shells                 0.01 Mb     (   1720)
     Largest temporary arrays     est. size (Mb)     dimensions
        Each subspace H/S matrix        0.01 Mb     (  20,  20)
        Each <psi_i|beta_j> matrix      0.01 Mb     (     40,   20)
        Arrays for rho mixing           0.49 Mb     (   4032,   8)

     Initial potential from superposition of free atoms

     Starting from uniform charge
     Starting wfc are    0 randomized atomic wfcs

     total cpu time spent up to now is        0.7 secs

     Self-consistent Calculation

     iteration #  1     ecut=    40.00 Ry     beta=0.70
     CG style diagonalization
     c_bands:  1 eigenvalues not converged
     c_bands:  1 eigenvalues not converged
     c_bands:  1 eigenvalues not converged
     c_bands:  1 eigenvalues not converged
     c_bands:  1 eigenvalues not converged
     c_bands:  1 eigenvalues not converged
     c_bands:  1 eigenvalues not converged
     c_bands:  1 eigenvalues not converged
     c_bands:  1 eigenvalues not converged
     c_bands:  1 eigenvalues not converged
     c_bands:  1 eigenvalues not converged
     c_bands:  2 eigenvalues not converged
     ethr =  1.00E-02,  avg # of iterations = 10.5

     total cpu time spent up to now is        5.2 secs

     total energy              =    -238.36448276 Ry
     Harris-Foulkes estimate   =    -319.50628030 Ry
     estimated scf accuracy    <     104.29198456 Ry

     iteration #  2     ecut=    40.00 Ry     beta=0.70
     CG style diagonalization
     c_bands:  1 eigenvalues not converged
     c_bands:  1 eigenvalues not converged
     c_bands:  1 eigenvalues not converged
     c_bands:  1 eigenvalues not converged
     c_bands:  1 eigenvalues not converged
     c_bands:  1 eigenvalues not converged
     c_bands:  1 eigenvalues not converged
     c_bands:  1 eigenvalues not converged
     c_bands:  1 eigenvalues not converged
     c_bands:  2 eigenvalues not converged
     c_bands:  1 eigenvalues not converged
     ethr =  1.00E-02,  avg # of iterations = 10.7

     total cpu time spent up to now is       10.4 secs

     total energy              =    -263.41445263 Ry
     Harris-Foulkes estimate   =    -316.57757800 Ry
     estimated scf accuracy    <      96.43427470 Ry

     iteration #  3     ecut=    40.00 Ry     beta=0.70
     CG style diagonalization
     ethr =  1.00E-02,  avg # of iterations =  8.2

     total cpu time spent up to now is       13.8 secs

     total energy              =    -284.39427912 Ry
     Harris-Foulkes estimate   =    -286.85199553 Ry
     estimated scf accuracy    <       4.51032246 Ry

     iteration #  4     ecut=    40.00 Ry     beta=0.70
     CG style diagonalization
     ethr =  1.00E-02,  avg # of iterations =  3.7

     total cpu time spent up to now is       15.3 secs

     total energy              =    -285.21451548 Ry
     Harris-Foulkes estimate   =    -285.31702918 Ry
     estimated scf accuracy    <       0.18494000 Ry

     iteration #  5     ecut=    40.00 Ry     beta=0.70
     CG style diagonalization
     ethr =  5.97E-04,  avg # of iterations =  4.6

     total cpu time spent up to now is       17.2 secs

     total energy              =    -285.25907291 Ry
     Harris-Foulkes estimate   =    -285.27913238 Ry
     estimated scf accuracy    <       0.03271186 Ry

     iteration #  6     ecut=    40.00 Ry     beta=0.70
     CG style diagonalization
     c_bands:  1 eigenvalues not converged
     c_bands:  1 eigenvalues not converged
     ethr =  1.06E-04,  avg # of iterations =  4.1

     negative rho (up, down):  0.351E-06 0.000E+00

     total cpu time spent up to now is       18.8 secs

     total energy              =    -285.27015513 Ry
     Harris-Foulkes estimate   =    -285.27413574 Ry
     estimated scf accuracy    <       0.00891572 Ry

     iteration #  7     ecut=    40.00 Ry     beta=0.70
     CG style diagonalization
     c_bands:  1 eigenvalues not converged
     c_bands:  1 eigenvalues not converged
     ethr =  2.88E-05,  avg # of iterations =  3.4

     total cpu time spent up to now is       20.6 secs

     total energy              =    -285.27042188 Ry
     Harris-Foulkes estimate   =    -285.27119464 Ry
     estimated scf accuracy    <       0.00120727 Ry

     iteration #  8     ecut=    40.00 Ry     beta=0.70
     CG style diagonalization
     c_bands:  2 eigenvalues not converged
     c_bands:  1 eigenvalues not converged
     ethr =  3.89E-06,  avg # of iterations =  4.4

     total cpu time spent up to now is       22.4 secs

     total energy              =    -285.27090746 Ry
     Harris-Foulkes estimate   =    -285.27099324 Ry
     estimated scf accuracy    <       0.00017012 Ry

     iteration #  9     ecut=    40.00 Ry     beta=0.70
     CG style diagonalization
     ethr =  5.49E-07,  avg # of iterations =  3.7

     total cpu time spent up to now is       23.9 secs

     End of self-consistent calculation

     Number of k-points >= 100: set verbosity='high' to print the bands.

     the Fermi energy is    32.8955 ev

!    total energy              =    -285.27095484 Ry
     Harris-Foulkes estimate   =    -285.27096241 Ry
     estimated scf accuracy    <       0.00000878 Ry

     The total energy is the sum of the following terms:

     one-electron contribution =      25.09101049 Ry
     hartree contribution      =      21.11423181 Ry
     xc contribution           =     -32.28761257 Ry
     ewald contribution        =    -299.09753597 Ry
     smearing contrib. (-TS)   =      -0.09104860 Ry

     convergence has been achieved in   9 iterations

     Forces acting on atoms (Ry/au):

     atom    1 type  1   force =     0.00000000    0.00000000    0.00000000
     atom    2 type  2   force =     0.00000000    0.00000000    0.00000000

     Total force =     0.000000     Total SCF correction =     0.000000


     entering subroutine stress ...

          total   stress  (Ry/bohr**3)                   (kbar)     P= 1285.84
   0.00797343   0.00000000   0.00000000       1172.93      0.00      0.00
   0.00000000   0.00797343   0.00000000          0.00   1172.93      0.00
   0.00000000   0.00000000   0.01027594          0.00      0.00   1511.64


     BFGS Geometry Optimization

     number of scf cycles    =   1
     number of bfgs steps    =   0

     enthalpy new            =    -285.2709548410 Ry

     new trust radius        =       0.5000000000 bohr
     new conv_thr            =       0.0001000000 Ry

     new unit-cell volume =    307.67888 a.u.^3 (    45.59331 Ang^3 )

CELL_PARAMETERS (alat=  5.41249258)
   1.136242608   0.000000000   0.000000000
   0.000000000   1.136242608   0.000000000
   0.000000000   0.000000000   1.503015978

ATOMIC_POSITIONS (crystal)
Cu       0.500000000   0.500000000   0.500000000
Au       0.000000000   0.000000000   0.000000000



     Writing output data file Prototype-La-tP2-AuCu.save
     NEW-OLD atomic charge density approx. for the potential
     NEW k-points: (use verbosity='high' to print them)

     total cpu time spent up to now is       24.7 secs

     Self-consistent Calculation

     iteration #  1     ecut=    40.00 Ry     beta=0.70
     CG style diagonalization
     c_bands:  1 eigenvalues not converged
     c_bands:  1 eigenvalues not converged
     c_bands:  2 eigenvalues not converged
     c_bands:  1 eigenvalues not converged
     c_bands:  1 eigenvalues not converged
     c_bands:  2 eigenvalues not converged
     c_bands:  4 eigenvalues not converged
     c_bands:  1 eigenvalues not converged
     c_bands:  1 eigenvalues not converged
     c_bands:  1 eigenvalues not converged
     c_bands:  2 eigenvalues not converged
     c_bands:  2 eigenvalues not converged
     c_bands:  4 eigenvalues not converged
     c_bands:  2 eigenvalues not converged
     c_bands:  1 eigenvalues not converged
     c_bands:  1 eigenvalues not converged
     c_bands:  1 eigenvalues not converged
     c_bands:  1 eigenvalues not converged
     c_bands:  1 eigenvalues not converged
     c_bands:  3 eigenvalues not converged
     c_bands:  3 eigenvalues not converged
     c_bands:  2 eigenvalues not converged
     c_bands:  5 eigenvalues not converged
     c_bands:  4 eigenvalues not converged
     c_bands:  3 eigenvalues not converged
     c_bands:  3 eigenvalues not converged
     c_bands:  3 eigenvalues not converged
     c_bands:  4 eigenvalues not converged
     c_bands:  5 eigenvalues not converged
     c_bands:  1 eigenvalues not converged
     c_bands:  3 eigenvalues not converged
     c_bands:  3 eigenvalues not converged
     c_bands:  3 eigenvalues not converged
     c_bands:  2 eigenvalues not converged
     c_bands:  1 eigenvalues not converged
     c_bands:  2 eigenvalues not converged
     c_bands:  2 eigenvalues not converged
     c_bands:  2 eigenvalues not converged
     c_bands:  2 eigenvalues not converged
     c_bands:  3 eigenvalues not converged
     c_bands:  3 eigenvalues not converged
     c_bands:  2 eigenvalues not converged
     c_bands:  4 eigenvalues not converged
     c_bands:  4 eigenvalues not converged
     c_bands:  2 eigenvalues not converged
     c_bands:  4 eigenvalues not converged
     c_bands:  4 eigenvalues not converged
     c_bands:  3 eigenvalues not converged
     c_bands:  2 eigenvalues not converged
     c_bands:  3 eigenvalues not converged
     c_bands:  2 eigenvalues not converged
     c_bands:  3 eigenvalues not converged
     c_bands:  2 eigenvalues not converged
     c_bands:  1 eigenvalues not converged
     c_bands:  2 eigenvalues not converged
     c_bands:  1 eigenvalues not converged
     c_bands:  2 eigenvalues not converged
     c_bands:  2 eigenvalues not converged
     c_bands:  2 eigenvalues not converged
     c_bands:  1 eigenvalues not converged
     c_bands:  2 eigenvalues not converged
     c_bands:  4 eigenvalues not converged
     c_bands:  5 eigenvalues not converged
     c_bands:  4 eigenvalues not converged
     c_bands:  4 eigenvalues not converged
     c_bands:  4 eigenvalues not converged
     c_bands:  5 eigenvalues not converged
     c_bands:  5 eigenvalues not converged
     c_bands:  4 eigenvalues not converged
     c_bands:  2 eigenvalues not converged
     c_bands:  5 eigenvalues not converged
     c_bands:  2 eigenvalues not converged
     c_bands:  1 eigenvalues not converged
     c_bands:  3 eigenvalues not converged
     c_bands:  1 eigenvalues not converged
     ethr =  1.00E-06,  avg # of iterations = 14.5

     total cpu time spent up to now is       30.6 secs

     total energy              =    -279.78439621 Ry
     Harris-Foulkes estimate   =    -290.52479660 Ry
     estimated scf accuracy    <      13.85331566 Ry

     iteration #  2     ecut=    40.00 Ry     beta=0.70
     CG style diagonalization
     ethr =  1.00E-02,  avg # of iterations =  4.4

     total cpu time spent up to now is       32.5 secs

     total energy              =    -279.53229150 Ry
     Harris-Foulkes estimate   =    -290.06529303 Ry
     estimated scf accuracy    <      22.05713897 Ry

     iteration #  3     ecut=    40.00 Ry     beta=0.70
     CG style diagonalization
     ethr =  1.00E-02,  avg # of iterations =  4.5

     total cpu time spent up to now is       34.3 secs

     total energy              =    -284.74680811 Ry
     Harris-Foulkes estimate   =    -286.59496197 Ry
     estimated scf accuracy    <       5.00368410 Ry

     iteration #  4     ecut=    40.00 Ry     beta=0.70
     CG style diagonalization
     ethr =  1.00E-02,  avg # of iterations =  3.3

     total cpu time spent up to now is       36.1 secs

     total energy              =    -285.13552706 Ry
     Harris-Foulkes estimate   =    -285.24590386 Ry
     estimated scf accuracy    <       0.37525956 Ry

     iteration #  5     ecut=    40.00 Ry     beta=0.70
     CG style diagonalization
     ethr =  1.21E-03,  avg # of iterations =  3.7

     total cpu time spent up to now is       37.6 secs

     total energy              =    -285.21104675 Ry
     Harris-Foulkes estimate   =    -285.22125615 Ry
     estimated scf accuracy    <       0.01634332 Ry

     iteration #  6     ecut=    40.00 Ry     beta=0.70
     CG style diagonalization
     ethr =  5.27E-05,  avg # of iterations =  4.6

     total cpu time spent up to now is       39.9 secs

     total energy              =    -285.21397913 Ry
     Harris-Foulkes estimate   =    -285.22532130 Ry
     estimated scf accuracy    <       0.02906428 Ry

     iteration #  7     ecut=    40.00 Ry     beta=0.70
     CG style diagonalization
     ethr =  5.27E-05,  avg # of iterations =  3.4

     total cpu time spent up to now is       41.2 secs

     total energy              =    -285.21922467 Ry
     Harris-Foulkes estimate   =    -285.21972221 Ry
     estimated scf accuracy    <       0.00177288 Ry

     iteration #  8     ecut=    40.00 Ry     beta=0.70
     CG style diagonalization
     ethr =  5.72E-06,  avg # of iterations =  3.4

     total cpu time spent up to now is       42.6 secs

     End of self-consistent calculation

     Number of k-points >= 100: set verbosity='high' to print the bands.

     the Fermi energy is    20.0279 ev

!    total energy              =    -285.21952424 Ry
     Harris-Foulkes estimate   =    -285.21957741 Ry
     estimated scf accuracy    <       0.00007558 Ry

     The total energy is the sum of the following terms:

     one-electron contribution =     -27.50033705 Ry
     hartree contribution      =      33.55331026 Ry
     xc contribution           =     -30.87703165 Ry
     ewald contribution        =    -260.24722755 Ry
     smearing contrib. (-TS)   =      -0.14823825 Ry

     convergence has been achieved in   8 iterations

     Forces acting on atoms (Ry/au):

     atom    1 type  1   force =     0.00000000    0.00000000    0.00000000
     atom    2 type  2   force =     0.00000000    0.00000000    0.00000000

     Total force =     0.000000     Total SCF correction =     0.000000


     entering subroutine stress ...

          total   stress  (Ry/bohr**3)                   (kbar)     P= -861.24
  -0.00582313   0.00000000   0.00000000       -856.61      0.00      0.00
   0.00000000  -0.00582313   0.00000000          0.00   -856.61      0.00
   0.00000000   0.00000000  -0.00591744          0.00      0.00   -870.48


     number of scf cycles    =   2
     number of bfgs steps    =   1

     enthalpy old            =    -285.2709548410 Ry
     enthalpy new            =    -285.2195242424 Ry

     CASE: enthalpy_new > enthalpy_old

     new trust radius        =       0.2462787641 bohr

     trust_radius < trust_radius_min

     resetting bfgs history

     new conv_thr            =       0.0001000000 Ry

     new unit-cell volume =    297.67185 a.u.^3 (    44.11042 Ang^3 )

CELL_PARAMETERS (alat=  5.41249258)
   1.121451397   0.000000000   0.000000000
   0.000000000   1.121451397   0.000000000
   0.000000000   0.000000000   1.492742526

ATOMIC_POSITIONS (crystal)
Cu       0.500000000   0.500000000   0.500000000
Au       0.000000000   0.000000000   0.000000000



     Writing output data file Prototype-La-tP2-AuCu.save
     NEW-OLD atomic charge density approx. for the potential
     NEW k-points: (use verbosity='high' to print them)

     total cpu time spent up to now is       43.4 secs

     Self-consistent Calculation

     iteration #  1     ecut=    40.00 Ry     beta=0.70
     CG style diagonalization
     ethr =  1.00E-06,  avg # of iterations =  7.3

     total cpu time spent up to now is       46.4 secs

     total energy              =    -285.22273887 Ry
     Harris-Foulkes estimate   =    -285.30984392 Ry
     estimated scf accuracy    <       0.10930822 Ry

     iteration #  2     ecut=    40.00 Ry     beta=0.70
     CG style diagonalization
     ethr =  3.53E-04,  avg # of iterations =  3.7

     total cpu time spent up to now is       47.9 secs

     total energy              =    -285.19084178 Ry
     Harris-Foulkes estimate   =    -285.35520916 Ry
     estimated scf accuracy    <       0.46348316 Ry

     iteration #  3     ecut=    40.00 Ry     beta=0.70
     CG style diagonalization
     ethr =  3.53E-04,  avg # of iterations =  3.5

     total cpu time spent up to now is       49.3 secs

     total energy              =    -285.26898869 Ry
     Harris-Foulkes estimate   =    -285.27903249 Ry
     estimated scf accuracy    <       0.03070907 Ry

     iteration #  4     ecut=    40.00 Ry     beta=0.70
     CG style diagonalization
     ethr =  9.91E-05,  avg # of iterations =  3.1

     total cpu time spent up to now is       50.5 secs

     total energy              =    -285.27382678 Ry
     Harris-Foulkes estimate   =    -285.27390732 Ry
     estimated scf accuracy    <       0.00018133 Ry

     iteration #  5     ecut=    40.00 Ry     beta=0.70
     CG style diagonalization
     ethr =  5.85E-07,  avg # of iterations =  4.5

     total cpu time spent up to now is       52.4 secs

     End of self-consistent calculation

     Number of k-points >= 100: set verbosity='high' to print the bands.

     the Fermi energy is    20.8627 ev

!    total energy              =    -285.27399698 Ry
     Harris-Foulkes estimate   =    -285.27406714 Ry
     estimated scf accuracy    <       0.00007891 Ry

     The total energy is the sum of the following terms:

     one-electron contribution =     -23.54591808 Ry
     hartree contribution      =      32.50808566 Ry
     xc contribution           =     -30.96735984 Ry
     ewald contribution        =    -263.12803034 Ry
     smearing contrib. (-TS)   =      -0.14077437 Ry

     convergence has been achieved in   5 iterations

     Forces acting on atoms (Ry/au):

     atom    1 type  1   force =     0.00000000    0.00000000    0.00000000
     atom    2 type  2   force =     0.00000000    0.00000000    0.00000000

     Total force =     0.000000     Total SCF correction =     0.000000


     entering subroutine stress ...

          total   stress  (Ry/bohr**3)                   (kbar)     P= -775.40
  -0.00523167   0.00000000   0.00000000       -769.61      0.00      0.00
   0.00000000  -0.00523167   0.00000000          0.00   -769.61      0.00
   0.00000000   0.00000000  -0.00534980          0.00      0.00   -786.98


     number of scf cycles    =   3
     number of bfgs steps    =   1

     enthalpy old            =    -285.2709548410 Ry
     enthalpy new            =    -285.2739969752 Ry

     CASE: enthalpy_new > enthalpy_old

     new trust radius        =       0.2486129734 bohr

     trust_radius < trust_radius_min

     resetting bfgs history

     Message from routine bfgs:
     history already reset at previous step: stopping
     new conv_thr            =       0.0001000000 Ry

     new unit-cell volume =    297.90562 a.u.^3 (    44.14506 Ang^3 )

CELL_PARAMETERS (alat=  5.41249258)
   1.121109982   0.000000000   0.000000000
   0.000000000   1.121109982   0.000000000
   0.000000000   0.000000000   1.494824873

ATOMIC_POSITIONS (crystal)
Cu       0.500000000   0.500000000   0.500000000
Au       0.000000000   0.000000000   0.000000000



     Writing output data file Prototype-La-tP2-AuCu.save
     NEW-OLD atomic charge density approx. for the potential
     NEW k-points: (use verbosity='high' to print them)

     total cpu time spent up to now is       53.2 secs

     Self-consistent Calculation

     iteration #  1     ecut=    40.00 Ry     beta=0.70
     CG style diagonalization
     ethr =  1.00E-06,  avg # of iterations =  4.3

     total cpu time spent up to now is       54.9 secs

     total energy              =    -285.27209704 Ry
     Harris-Foulkes estimate   =    -285.27300232 Ry
     estimated scf accuracy    <       0.00108528 Ry

     iteration #  2     ecut=    40.00 Ry     beta=0.70
     CG style diagonalization
     ethr =  3.50E-06,  avg # of iterations =  3.8

     total cpu time spent up to now is       56.5 secs

     total energy              =    -285.27137673 Ry
     Harris-Foulkes estimate   =    -285.27440295 Ry
     estimated scf accuracy    <       0.01085498 Ry

     iteration #  3     ecut=    40.00 Ry     beta=0.70
     CG style diagonalization
     ethr =  3.50E-06,  avg # of iterations =  3.6

     total cpu time spent up to now is       57.8 secs

     End of self-consistent calculation

     Number of k-points >= 100: set verbosity='high' to print the bands.

     the Fermi energy is    20.8363 ev

!    total energy              =    -285.27276862 Ry
     Harris-Foulkes estimate   =    -285.27277611 Ry
     estimated scf accuracy    <       0.00000928 Ry

     The total energy is the sum of the following terms:

     one-electron contribution =     -23.62778052 Ry
     hartree contribution      =      32.51932843 Ry
     xc contribution           =     -30.96494329 Ry
     ewald contribution        =    -263.05823112 Ry
     smearing contrib. (-TS)   =      -0.14114211 Ry

     convergence has been achieved in   3 iterations

     Forces acting on atoms (Ry/au):

     atom    1 type  1   force =     0.00000000    0.00000000    0.00000000
     atom    2 type  2   force =     0.00000000    0.00000000    0.00000000

     Total force =     0.000000     Total SCF correction =     0.000000


     entering subroutine stress ...

          total   stress  (Ry/bohr**3)                   (kbar)     P= -770.11
  -0.00517251   0.00000000   0.00000000       -760.90      0.00      0.00
   0.00000000  -0.00517251   0.00000000          0.00   -760.90      0.00
   0.00000000   0.00000000  -0.00536030          0.00      0.00   -788.53


     The maximum number of steps has been reached.

     End of BFGS Geometry Optimization
Begin final coordinates
     new unit-cell volume =    297.90562 a.u.^3 (    44.14506 Ang^3 )

CELL_PARAMETERS (alat=  5.41249258)
   1.121109982   0.000000000   0.000000000
   0.000000000   1.121109982   0.000000000
   0.000000000   0.000000000   1.494824873

ATOMIC_POSITIONS (crystal)
Cu       0.500000000   0.500000000   0.500000000
Au       0.000000000   0.000000000   0.000000000
End final coordinates



     A final scf calculation at the relaxed structure.
     The G-vectors are recalculated for the final unit cell
     Results may differ from those at the preceding step.
 
     Parallelization info
     --------------------
     sticks:   dense  smooth     PW     G-vecs:    dense   smooth      PW
     Min         120     120     36                 2548     2548     452
     Max         121     121     37                 2549     2549     454
     Sum         481     481    145                10193    10193    1811
 


     bravais-lattice index     =            0
     lattice parameter (alat)  =       5.4125  a.u.
     unit-cell volume          =     297.9056 (a.u.)^3
     number of atoms/cell      =            2
     number of atomic types    =            2
     number of electrons       =        31.00
     number of Kohn-Sham states=           20
     kinetic-energy cutoff     =      40.0000  Ry
     charge density cutoff     =     160.0000  Ry
     convergence threshold     =      1.0E-04
     mixing beta               =       0.7000
     number of iterations used =            8  plain     mixing
     Exchange-correlation      = SLA-PZ-NOGX-NOGC ( 1 1 0 0 0)
     EXX-fraction              =        0.00

     celldm(1)=   5.412493  celldm(2)=   0.000000  celldm(3)=   0.000000
     celldm(4)=   0.000000  celldm(5)=   0.000000  celldm(6)=   0.000000

     crystal axes: (cart. coord. in units of alat)
               a(1) = (   1.121110   0.000000   0.000000 )  
               a(2) = (   0.000000   1.121110   0.000000 )  
               a(3) = (   0.000000   0.000000   1.494825 )  

     reciprocal axes: (cart. coord. in units 2 pi/alat)
               b(1) = (  0.891973  0.000000  0.000000 )  
               b(2) = (  0.000000  0.891973  0.000000 )  
               b(3) = (  0.000000  0.000000  0.668975 )  


     PseudoPot. # 1 for Eu read from file:
     /home/cwx6513/pp.La/Eu.UPF
     MD5 check sum: 5efdbbfc50c6a10138933a6429836ad2
     Pseudo is Norm-conserving, Zval = 17.0
     Generated in analytical, separable form
     Using radial grid of 1261 points,  6 beta functions with: 
                l(1) =   0
                l(2) =   0
                l(3) =   1
                l(4) =   1
                l(5) =   2
                l(6) =   3

     PseudoPot. # 2 for Nd read from file:
     /home/cwx6513/pp.La/Nd.UPF
     MD5 check sum: c66c5b6abe7b5840ced9b1e244e3bed6
     Pseudo is Norm-conserving, Zval = 14.0
     Generated in analytical, separable form
     Using radial grid of 1257 points,  6 beta functions with: 
                l(1) =   0
                l(2) =   0
                l(3) =   1
                l(4) =   1
                l(5) =   2
                l(6) =   3

     atomic species   valence    mass     pseudopotential
        Cu            17.00    63.54600     Eu( 1.00)
        Au            14.00   196.96600     Nd( 1.00)

     16 Sym. Ops., with inversion, found



   Cartesian axes

     site n.     atom                  positions (alat units)
         1           Cu  tau(   1) = (   0.5605550   0.5605550   0.7474124  )
         2           Au  tau(   2) = (   0.0000000   0.0000000   0.0000000  )

     number of k points=   100  gaussian smearing, width (Ry)=  0.1000

     Number of k-points >= 100: set verbosity='high' to print them.

     Dense  grid:    10193 G-vectors     FFT dimensions: (  25,  25,  36)

     Largest allocated arrays     est. size (Mb)     dimensions
        Kohn-Sham Wavefunctions         0.10 Mb     (    327,   20)
        NL pseudopotentials             0.20 Mb     (    327,   40)
        Each V/rho on FFT grid          0.09 Mb     (   5625)
        Each G-vector array             0.02 Mb     (   2549)
        G-vector shells                 0.01 Mb     (    658)
     Largest temporary arrays     est. size (Mb)     dimensions
        Each subspace H/S matrix        0.01 Mb     (  20,  20)
        Each <psi_i|beta_j> matrix      0.01 Mb     (     40,   20)
        Arrays for rho mixing           0.69 Mb     (   5625,   8)

     Initial potential from superposition of free atoms

     Starting from uniform charge
     Starting wfc are    0 randomized atomic wfcs

     Writing output data file Prototype-La-tP2-AuCu.save

     total cpu time spent up to now is       59.2 secs

     Self-consistent Calculation

     iteration #  1     ecut=    40.00 Ry     beta=0.70
     CG style diagonalization
     c_bands:  1 eigenvalues not converged
     c_bands:  2 eigenvalues not converged
     c_bands:  1 eigenvalues not converged
     c_bands:  1 eigenvalues not converged
     c_bands:  1 eigenvalues not converged
     c_bands:  1 eigenvalues not converged
     c_bands:  5 eigenvalues not converged
     c_bands:  2 eigenvalues not converged
     c_bands:  3 eigenvalues not converged
     c_bands:  2 eigenvalues not converged
     c_bands:  2 eigenvalues not converged
     c_bands:  2 eigenvalues not converged
     c_bands:  1 eigenvalues not converged
     c_bands:  3 eigenvalues not converged
     c_bands:  3 eigenvalues not converged
     c_bands:  1 eigenvalues not converged
     c_bands:  1 eigenvalues not converged
     c_bands:  2 eigenvalues not converged
     c_bands:  2 eigenvalues not converged
     c_bands:  2 eigenvalues not converged
     c_bands:  3 eigenvalues not converged
     c_bands:  1 eigenvalues not converged
     c_bands:  1 eigenvalues not converged
     c_bands:  2 eigenvalues not converged
     c_bands:  2 eigenvalues not converged
     c_bands:  1 eigenvalues not converged
     ethr =  1.00E-06,  avg # of iterations = 31.3

     total cpu time spent up to now is       76.8 secs

     total energy              =    -227.89600005 Ry
     Harris-Foulkes estimate   =    -342.09961368 Ry
     estimated scf accuracy    <     145.11035347 Ry

     iteration #  2     ecut=    40.00 Ry     beta=0.70
     CG style diagonalization
     c_bands:  1 eigenvalues not converged
     c_bands:  1 eigenvalues not converged
     c_bands:  1 eigenvalues not converged
     c_bands:  1 eigenvalues not converged
     c_bands:  1 eigenvalues not converged
     c_bands:  1 eigenvalues not converged
     c_bands:  1 eigenvalues not converged
     c_bands:  1 eigenvalues not converged
     c_bands:  1 eigenvalues not converged
     c_bands:  1 eigenvalues not converged
     c_bands:  1 eigenvalues not converged
     c_bands:  1 eigenvalues not converged
     c_bands:  2 eigenvalues not converged
     c_bands:  1 eigenvalues not converged
     c_bands:  1 eigenvalues not converged
     c_bands:  1 eigenvalues not converged
     c_bands:  1 eigenvalues not converged
     c_bands:  1 eigenvalues not converged
     c_bands:  1 eigenvalues not converged
     ethr =  1.00E-02,  avg # of iterations = 11.5

     total cpu time spent up to now is       83.6 secs

     total energy              =    -240.44547469 Ry
     Harris-Foulkes estimate   =    -330.09111595 Ry
     estimated scf accuracy    <     170.76524129 Ry

     iteration #  3     ecut=    40.00 Ry     beta=0.70
     CG style diagonalization
     c_bands:  1 eigenvalues not converged
     c_bands:  1 eigenvalues not converged
     c_bands:  1 eigenvalues not converged
     ethr =  1.00E-02,  avg # of iterations =  9.8

     total cpu time spent up to now is       89.5 secs

     total energy              =    -283.83058191 Ry
     Harris-Foulkes estimate   =    -291.03660174 Ry
     estimated scf accuracy    <      15.70940685 Ry

     iteration #  4     ecut=    40.00 Ry     beta=0.70
     CG style diagonalization
     ethr =  1.00E-02,  avg # of iterations =  4.3

     total cpu time spent up to now is       92.0 secs

     total energy              =    -285.35096740 Ry
     Harris-Foulkes estimate   =    -285.76712412 Ry
     estimated scf accuracy    <       0.91311927 Ry

     iteration #  5     ecut=    40.00 Ry     beta=0.70
     CG style diagonalization
     ethr =  2.95E-03,  avg # of iterations =  3.8

     total cpu time spent up to now is       94.3 secs

     total energy              =    -285.56824306 Ry
     Harris-Foulkes estimate   =    -285.67697055 Ry
     estimated scf accuracy    <       0.26535182 Ry

     iteration #  6     ecut=    40.00 Ry     beta=0.70
     CG style diagonalization
     ethr =  8.56E-04,  avg # of iterations =  3.7

     total cpu time spent up to now is       96.4 secs

     total energy              =    -285.62898802 Ry
     Harris-Foulkes estimate   =    -285.63532455 Ry
     estimated scf accuracy    <       0.01543168 Ry

     iteration #  7     ecut=    40.00 Ry     beta=0.70
     CG style diagonalization
     c_bands:  1 eigenvalues not converged
     c_bands:  1 eigenvalues not converged
     c_bands:  1 eigenvalues not converged
     ethr =  4.98E-05,  avg # of iterations =  4.2

     total cpu time spent up to now is       99.5 secs

     total energy              =    -285.62990407 Ry
     Harris-Foulkes estimate   =    -285.63257174 Ry
     estimated scf accuracy    <       0.00438307 Ry

     iteration #  8     ecut=    40.00 Ry     beta=0.70
     CG style diagonalization
     c_bands:  1 eigenvalues not converged
     ethr =  1.41E-05,  avg # of iterations =  3.8

     total cpu time spent up to now is      101.8 secs

     total energy              =    -285.63087815 Ry
     Harris-Foulkes estimate   =    -285.63137973 Ry
     estimated scf accuracy    <       0.00120338 Ry

     iteration #  9     ecut=    40.00 Ry     beta=0.70
     CG style diagonalization
     c_bands:  1 eigenvalues not converged
     ethr =  3.88E-06,  avg # of iterations =  3.5

     total cpu time spent up to now is      103.9 secs

     total energy              =    -285.63119571 Ry
     Harris-Foulkes estimate   =    -285.63131148 Ry
     estimated scf accuracy    <       0.00048994 Ry

     iteration # 10     ecut=    40.00 Ry     beta=0.70
     CG style diagonalization
     ethr =  1.58E-06,  avg # of iterations =  3.0

     total cpu time spent up to now is      105.8 secs

     End of self-consistent calculation

     Number of k-points >= 100: set verbosity='high' to print the bands.

     the Fermi energy is    20.8167 ev

!    total energy              =    -285.63121116 Ry
     Harris-Foulkes estimate   =    -285.63124081 Ry
     estimated scf accuracy    <       0.00003178 Ry

     The total energy is the sum of the following terms:

     one-electron contribution =     -24.13586054 Ry
     hartree contribution      =      32.70611289 Ry
     xc contribution           =     -31.00283402 Ry
     ewald contribution        =    -263.05822715 Ry
     smearing contrib. (-TS)   =      -0.14040234 Ry

     convergence has been achieved in  10 iterations

     Forces acting on atoms (Ry/au):

     atom    1 type  1   force =     0.00000000    0.00000000    0.00000000
     atom    2 type  2   force =     0.00000000    0.00000000    0.00000000

     Total force =     0.000000     Total SCF correction =     0.000000


     entering subroutine stress ...

          total   stress  (Ry/bohr**3)                   (kbar)     P= -286.80
  -0.00210502   0.00000000   0.00000000       -309.66      0.00      0.00
   0.00000000  -0.00210502   0.00000000          0.00   -309.66      0.00
   0.00000000   0.00000000  -0.00163892          0.00      0.00   -241.09


     Writing output data file Prototype-La-tP2-AuCu.save
 
     init_run     :      1.02s CPU      1.16s WALL (       2 calls)
     electrons    :     94.35s CPU    101.38s WALL (       5 calls)
     update_pot   :      0.45s CPU      0.45s WALL (       3 calls)
     forces       :      0.59s CPU      0.60s WALL (       5 calls)
     stress       :      1.50s CPU      1.52s WALL (       5 calls)

     Called by init_run:
     wfcinit      :      0.76s CPU      0.89s WALL (       2 calls)
     potinit      :      0.09s CPU      0.09s WALL (       2 calls)

     Called by electrons:
     c_bands      :     89.39s CPU     94.03s WALL (      35 calls)
     sum_band     :      4.87s CPU      5.11s WALL (      35 calls)
     v_of_rho     :      0.02s CPU      0.02s WALL (      40 calls)
     mix_rho      :      0.01s CPU      0.02s WALL (      35 calls)

     Called by c_bands:
     init_us_2    :      0.94s CPU      0.96s WALL (    8200 calls)
     ccgdiagg     :     77.31s CPU     80.89s WALL (    3611 calls)
     wfcrot       :     12.00s CPU     12.98s WALL (    3711 calls)

     Called by *cgdiagg:
     h_psi        :     62.97s CPU     67.21s WALL (  347304 calls)
     cdiaghg      :      0.54s CPU      0.67s WALL (    3711 calls)

     Called by h_psi:
     add_vuspsi   :      3.76s CPU      4.34s WALL (  347304 calls)

     General routines
     calbec       :     12.23s CPU     13.07s WALL (  691897 calls)
     fft          :      0.03s CPU      0.03s WALL (     183 calls)
     fftw         :     51.34s CPU     53.42s WALL (  905626 calls)
     davcio       :      0.46s CPU      0.61s WALL (   11700 calls)
 
     Parallel routines
     fft_scatter  :     17.90s CPU     19.64s WALL (  905809 calls)
 
     PWSCF        :  1m38.79s CPU     1m46.51s WALL

 
   This run was terminated on:  21:16:53  22Mar2018            

=------------------------------------------------------------------------------=
   JOB DONE.
=------------------------------------------------------------------------------=
