
     Program PWSCF v.5.0.2 starts on 22Mar2018 at 21:15: 6 

     This program is part of the open-source Quantum ESPRESSO suite
     for quantum simulation of materials; please cite
         "P. Giannozzi et al., J. Phys.:Condens. Matter 21 395502 (2009);
          URL http://www.quantum-espresso.org", 
     in publications or presentations arising from this work. More details at
     http://www.quantum-espresso.org/quote.php

     Parallel version (MPI), running on     4 processors
     R & G space division:  proc/nbgrp/npool/nimage =       4

     Current dimensions of program PWSCF are:
     Max number of different atomic species (ntypx) = 10
     Max number of k-points (npk) =  40000
     Max angular momentum in pseudopotentials (lmaxx) =  3
     Waiting for input...
     Reading input from standard input

     Subspace diagonalization in iterative solution of the eigenvalue problem:
     a serial algorithm will be used

 
     Parallelization info
     --------------------
     sticks:   dense  smooth     PW     G-vecs:    dense   smooth      PW
     Min         207     207     61                 7381     7381    1191
     Max         208     208     62                 7386     7386    1192
     Sum         829     829    247                29529    29529    4767
 


     bravais-lattice index     =            0
     lattice parameter (alat)  =       7.0151  a.u.
     unit-cell volume          =     862.2778 (a.u.)^3
     number of atoms/cell      =           12
     number of atomic types    =            2
     number of electrons       =       192.00
     number of Kohn-Sham states=          115
     kinetic-energy cutoff     =      40.0000  Ry
     charge density cutoff     =     160.0000  Ry
     convergence threshold     =      1.0E-04
     mixing beta               =       0.7000
     number of iterations used =            8  plain     mixing
     Exchange-correlation      = SLA-PZ-NOGX-NOGC ( 1 1 0 0 0)
     EXX-fraction              =        0.00
     nstep                     =           50


     celldm(1)=   7.015105  celldm(2)=   0.000000  celldm(3)=   0.000000
     celldm(4)=   0.000000  celldm(5)=   0.000000  celldm(6)=   0.000000

     crystal axes: (cart. coord. in units of alat)
               a(1) = (   1.000000   0.000000   0.000000 )  
               a(2) = (   0.000000   1.315963   0.000000 )  
               a(3) = (   0.000000   0.000000   1.898020 )  

     reciprocal axes: (cart. coord. in units 2 pi/alat)
               b(1) = (  1.000000  0.000000  0.000000 )  
               b(2) = (  0.000000  0.759900  0.000000 )  
               b(3) = (  0.000000  0.000000  0.526865 )  


     PseudoPot. # 1 for Eu read from file:
     /home/cwx6513/pp.La/Eu.UPF
     MD5 check sum: 5efdbbfc50c6a10138933a6429836ad2
     Pseudo is Norm-conserving, Zval = 17.0
     Generated in analytical, separable form
     Using radial grid of 1261 points,  6 beta functions with: 
                l(1) =   0
                l(2) =   0
                l(3) =   1
                l(4) =   1
                l(5) =   2
                l(6) =   3

     PseudoPot. # 2 for Nd read from file:
     /home/cwx6513/pp.La/Nd.UPF
     MD5 check sum: c66c5b6abe7b5840ced9b1e244e3bed6
     Pseudo is Norm-conserving, Zval = 14.0
     Generated in analytical, separable form
     Using radial grid of 1257 points,  6 beta functions with: 
                l(1) =   0
                l(2) =   0
                l(3) =   1
                l(4) =   1
                l(5) =   2
                l(6) =   3

     atomic species   valence    mass     pseudopotential
        Co            17.00    58.93320     Eu( 1.00)
        Si            14.00    28.08550     Nd( 1.00)

      8 Sym. Ops., with inversion, found ( 6 have fractional translation)



   Cartesian axes

     site n.     atom                  positions (alat units)
         1           Co  tau(   1) = (   0.7500000   1.0875135   0.8270358  )
         2           Co  tau(   2) = (   0.2500000   0.2284499   1.0709846  )
         3           Co  tau(   3) = (   0.7500000   0.4295318   0.1219744  )
         4           Co  tau(   4) = (   0.2500000   0.8864316   1.7760460  )
         5           Co  tau(   5) = (   0.2500000   0.7067855   0.5358966  )
         6           Co  tau(   6) = (   0.7500000   0.6091779   1.3621238  )
         7           Co  tau(   7) = (   0.2500000   0.0488038   0.4131136  )
         8           Co  tau(   8) = (   0.7500000   1.2671596   1.4849068  )
         9           Si  tau(   9) = (   0.2500000   0.2669484   1.6960710  )
        10           Si  tau(  10) = (   0.7500000   1.0490149   0.2019494  )
        11           Si  tau(  11) = (   0.2500000   0.9249301   1.1509596  )
        12           Si  tau(  12) = (   0.7500000   0.3910333   0.7470608  )

     number of k points=    12  gaussian smearing, width (Ry)=  0.1000
                       cart. coord. in units 2pi/alat
        k(    1) = (   0.0000000   0.0000000   0.0000000), wk =   0.0833333
        k(    2) = (   0.0000000   0.0000000   0.1317162), wk =   0.1666667
        k(    3) = (   0.0000000   0.0000000  -0.2634324), wk =   0.0833333
        k(    4) = (   0.0000000   0.2532999   0.0000000), wk =   0.1666667
        k(    5) = (   0.0000000   0.2532999   0.1317162), wk =   0.3333333
        k(    6) = (   0.0000000   0.2532999  -0.2634324), wk =   0.1666667
        k(    7) = (  -0.5000000   0.0000000   0.0000000), wk =   0.0833333
        k(    8) = (  -0.5000000   0.0000000   0.1317162), wk =   0.1666667
        k(    9) = (  -0.5000000   0.0000000  -0.2634324), wk =   0.0833333
        k(   10) = (  -0.5000000   0.2532999   0.0000000), wk =   0.1666667
        k(   11) = (  -0.5000000   0.2532999   0.1317162), wk =   0.3333333
        k(   12) = (  -0.5000000   0.2532999  -0.2634324), wk =   0.1666667

     Dense  grid:    29529 G-vectors     FFT dimensions: (  30,  40,  54)

     Largest allocated arrays     est. size (Mb)     dimensions
        Kohn-Sham Wavefunctions         1.62 Mb     (    922,  115)
        NL pseudopotentials             3.38 Mb     (    922,  240)
        Each V/rho on FFT grid          0.26 Mb     (  16800)
        Each G-vector array             0.06 Mb     (   7386)
        G-vector shells                 0.06 Mb     (   7386)
     Largest temporary arrays     est. size (Mb)     dimensions
        Each subspace H/S matrix        0.20 Mb     ( 115, 115)
        Each <psi_i|beta_j> matrix      0.42 Mb     (    240,  115)
        Arrays for rho mixing           2.05 Mb     (  16800,   8)

     Initial potential from superposition of free atoms

     Starting from uniform charge
     Starting wfc are    0 randomized atomic wfcs

     total cpu time spent up to now is        2.2 secs

     Self-consistent Calculation

     iteration #  1     ecut=    40.00 Ry     beta=0.70
     CG style diagonalization
     c_bands:  1 eigenvalues not converged
     c_bands:  1 eigenvalues not converged
     ethr =  1.00E-02,  avg # of iterations = 10.7

     total cpu time spent up to now is       24.5 secs

     total energy              =   -1736.76759234 Ry
     Harris-Foulkes estimate   =   -1958.65121060 Ry
     estimated scf accuracy    <     297.86558123 Ry

     iteration #  2     ecut=    40.00 Ry     beta=0.70
     CG style diagonalization
     ethr =  1.00E-02,  avg # of iterations =  8.3

     total cpu time spent up to now is       40.9 secs

     total energy              =   -1782.43159879 Ry
     Harris-Foulkes estimate   =   -1871.41531352 Ry
     estimated scf accuracy    <     143.21210436 Ry

     iteration #  3     ecut=    40.00 Ry     beta=0.70
     CG style diagonalization
     ethr =  1.00E-02,  avg # of iterations =  6.2

     total cpu time spent up to now is       53.3 secs

     total energy              =   -1824.86737747 Ry
     Harris-Foulkes estimate   =   -1840.25268470 Ry
     estimated scf accuracy    <      32.48271103 Ry

     iteration #  4     ecut=    40.00 Ry     beta=0.70
     CG style diagonalization
     ethr =  1.00E-02,  avg # of iterations =  3.8

     total cpu time spent up to now is       61.0 secs

     total energy              =   -1830.70983278 Ry
     Harris-Foulkes estimate   =   -1831.91467536 Ry
     estimated scf accuracy    <       2.50661978 Ry

     iteration #  5     ecut=    40.00 Ry     beta=0.70
     CG style diagonalization
     ethr =  1.31E-03,  avg # of iterations =  4.1

     total cpu time spent up to now is       68.9 secs

     total energy              =   -1831.49635012 Ry
     Harris-Foulkes estimate   =   -1831.57818276 Ry
     estimated scf accuracy    <       0.14899815 Ry

     iteration #  6     ecut=    40.00 Ry     beta=0.70
     CG style diagonalization
     c_bands:  3 eigenvalues not converged
     c_bands:  2 eigenvalues not converged
     c_bands:  1 eigenvalues not converged
     c_bands:  2 eigenvalues not converged
     c_bands:  2 eigenvalues not converged
     ethr =  7.76E-05,  avg # of iterations =  5.0

     total cpu time spent up to now is       78.9 secs

     total energy              =   -1831.56358528 Ry
     Harris-Foulkes estimate   =   -1831.59134088 Ry
     estimated scf accuracy    <       0.05692320 Ry

     iteration #  7     ecut=    40.00 Ry     beta=0.70
     CG style diagonalization
     c_bands:  1 eigenvalues not converged
     c_bands:  1 eigenvalues not converged
     ethr =  2.96E-05,  avg # of iterations =  3.8

     total cpu time spent up to now is       86.6 secs

     total energy              =   -1831.57799151 Ry
     Harris-Foulkes estimate   =   -1831.58293344 Ry
     estimated scf accuracy    <       0.01176210 Ry

     iteration #  8     ecut=    40.00 Ry     beta=0.70
     CG style diagonalization
     ethr =  6.13E-06,  avg # of iterations =  3.7

     total cpu time spent up to now is       93.5 secs

     total energy              =   -1831.57974995 Ry
     Harris-Foulkes estimate   =   -1831.58006283 Ry
     estimated scf accuracy    <       0.00067246 Ry

     iteration #  9     ecut=    40.00 Ry     beta=0.70
     CG style diagonalization
     c_bands:  1 eigenvalues not converged
     ethr =  3.50E-07,  avg # of iterations =  4.6

     total cpu time spent up to now is      102.1 secs

     End of self-consistent calculation

          k = 0.0000 0.0000 0.0000 (  3675 PWs)   bands (ev):

   -18.6497 -18.0588 -18.0413 -17.7400 -17.6072 -17.3689 -17.3417 -17.2986
    -2.3210  -2.3187  -2.0901  -1.7025   6.1945   6.7545   6.9278   7.0366
     7.4749   7.5661   7.5821   7.6403   7.8419   8.4236   8.6208   8.6741
     8.8484   8.8698   8.9331   9.0062   9.2041   9.5321   9.5693   9.6724
     9.9188   9.9932  10.6619  10.8928  18.5331  18.9298  19.0360  19.2401
    19.2712  19.5809  19.8533  19.9198  19.9386  20.1381  20.3249  20.3795
    33.3541  33.5335  33.6076  34.4080  34.4161  34.6418  34.8983  35.2418
    35.3353  36.5041  36.8335  37.1929  37.5428  38.0106  38.2999  38.7370
    39.1342  39.3803  39.3956  39.9792  40.2220  40.5450  40.6940  41.0820
    41.7390  41.8111  41.9128  41.9845  42.4116  42.8013  43.0983  43.3884
    43.9474  43.9678  44.2459  44.2534  44.5493  44.9720  46.0630  46.1361
    46.4671  46.6958  46.8627  46.9984  47.8534  47.9882  48.5122  48.9575
    49.0280  49.3861  49.6102  50.7071  50.9234  51.1962  51.3854  51.4518
    51.5380  52.4865  52.7213  52.8830  53.2666  53.3004  54.4937  54.8304
    54.9797  55.6184  56.1164

          k = 0.0000 0.0000 0.1317 (  3675 PWs)   bands (ev):

   -18.6025 -18.2720 -17.8566 -17.7425 -17.5872 -17.4096 -17.3326 -17.3039
    -2.3474  -2.1681  -2.1444  -1.7720   6.2973   6.7842   6.8230   7.0307
     7.2302   7.3540   7.4380   8.0225   8.1005   8.1555   8.5635   8.6025
     8.8242   8.8770   8.9336   9.1574   9.2369   9.4348   9.5745   9.7269
    10.0397  10.2136  10.6972  10.8543  18.5911  18.8662  19.0821  19.1881
    19.2640  19.5945  19.7614  19.7633  19.9564  20.1134  20.3209  20.3594
    33.1313  33.5051  33.8468  34.0436  34.1879  34.6302  35.1998  35.5223
    35.9538  36.3443  37.3831  37.6406  38.0488  38.0544  38.3178  38.7225
    38.8811  39.2687  39.5843  40.0026  40.2934  40.4577  40.6666  40.7786
    40.9074  41.1495  41.9239  42.0137  42.1248  42.4000  42.6925  43.1083
    43.9432  43.9912  44.6745  44.7358  45.3018  45.3154  45.3406  45.9384
    46.0716  46.6913  46.7864  47.5910  47.6121  47.6672  48.4548  48.5960
    49.3564  49.6143  49.7333  50.4672  50.8919  51.1079  51.4308  51.6437
    52.0746  52.4762  52.6477  52.7030  52.7363  53.8895  54.4980  54.9114
    54.9335  55.7258  56.0035

          k = 0.0000 0.0000-0.2634 (  3690 PWs)   bands (ev):

   -18.4696 -18.4696 -17.7611 -17.7611 -17.5068 -17.5068 -17.3178 -17.3178
    -2.2627  -2.2627  -1.9536  -1.9536   6.5883   6.5883   6.8196   6.8196
     7.2482   7.2482   7.5835   7.5835   8.3250   8.3250   8.4733   8.4733
     8.9032   8.9032   9.1454   9.1454   9.3640   9.3640   9.4759   9.4759
    10.3250  10.3250  10.7721  10.7721  18.7265  18.7265  19.1383  19.1383
    19.3842  19.3842  19.6710  19.6710  20.0415  20.0415  20.3238  20.3238
    33.2350  33.2350  33.6121  33.6121  34.4874  34.4874  36.3584  36.3584
    36.6305  36.6305  36.9177  36.9177  38.3974  38.3974  38.6682  38.6682
    38.7696  38.7696  39.7216  39.7216  39.7658  39.7658  40.3506  40.3506
    41.6492  41.6492  42.1123  42.1123  42.3957  42.3957  43.0084  43.0084
    43.3391  43.3391  44.2137  44.2137  44.8202  44.8201  45.8424  45.8424
    46.6878  46.6878  46.8697  46.8697  48.1526  48.1526  48.2597  48.2597
    49.9634  49.9634  50.3612  50.3612  50.9575  50.9576  51.3255  51.3254
    51.8587  51.8585  52.4055  52.4053  53.8433  53.8434  55.1804  55.1800
    55.4353  55.4348  55.9409

          k = 0.0000 0.2533 0.0000 (  3664 PWs)   bands (ev):

   -18.4767 -18.1315 -17.9443 -17.8812 -17.6314 -17.4570 -17.3170 -17.2877
    -2.4401  -2.4325  -1.9613  -1.7838   6.5568   7.1357   7.3501   7.3594
     7.4526   7.4909   7.7148   7.7211   7.8217   8.2578   8.5535   8.7473
     8.8117   8.8344   9.0191   9.3671   9.4183   9.4942   9.6132   9.6477
     9.8471   9.8749  10.1700  10.4588  18.7626  18.7643  18.8633  18.9117
    19.1740  19.4012  19.4079  19.4161  19.7536  19.8445  19.9074  20.0656
    34.1716  34.3211  34.4206  34.5987  35.2879  35.3841  35.8653  35.9873
    35.9916  36.2423  37.2301  37.2647  37.4971  37.7775  38.0805  38.5932
    38.8984  39.2172  39.4822  39.7238  40.4921  40.6534  40.9685  40.9966
    41.4172  41.9028  42.1083  42.2278  42.5696  42.6952  42.8495  43.4293
    43.9891  44.2081  44.3481  44.6747  44.7169  44.7930  45.9086  46.3337
    46.3916  46.6939  46.9099  47.7098  47.9924  48.0709  48.1776  48.6661
    48.7953  48.8151  48.9389  49.7750  49.9271  50.3349  50.8127  51.0435
    51.0954  51.3895  51.7684  52.6410  52.8465  53.3634  53.9362  53.9545
    54.5421  55.0645  55.4611

          k = 0.0000 0.2533 0.1317 (  3669 PWs)   bands (ev):

   -18.4375 -18.1947 -17.9695 -17.8748 -17.5740 -17.4245 -17.3496 -17.3047
    -2.4159  -2.3587  -1.9980  -1.8480   6.6464   6.9991   7.1070   7.2571
     7.4049   7.6260   7.6462   7.9231   7.9887   8.1305   8.4235   8.7331
     8.7903   8.9874   8.9998   9.3190   9.3959   9.5253   9.5870   9.7635
     9.9012  10.0144  10.2185  10.4327  18.7895  18.8178  18.8253  18.9424
    19.1323  19.1762  19.3026  19.5619  19.6316  19.8619  19.9522  20.0050
    34.0189  34.1570  34.5793  34.6953  35.2687  35.5253  35.8401  36.3210
    36.3235  36.5375  37.0735  37.1838  37.7035  38.1129  38.2330  38.6360
    38.7704  38.9538  39.2971  39.9915  40.0829  40.4670  40.8681  41.1840
    41.3504  41.8453  42.1200  42.3047  42.3709  42.7815  43.2375  43.3133
    43.4959  43.8299  43.9515  44.5888  44.9546  44.9783  45.6700  46.1969
    46.3854  46.5531  46.9070  47.1925  47.5574  47.9186  48.0386  48.8627
    49.0648  49.1127  49.5549  50.2687  50.2688  50.3719  50.8899  50.9339
    51.0655  51.3772  51.7777  51.9304  52.6044  53.0065  53.4679  54.5782
    54.7984  55.3683  55.9826

          k = 0.0000 0.2533-0.2634 (  3666 PWs)   bands (ev):

   -18.3298 -18.3298 -17.9296 -17.9296 -17.4553 -17.4553 -17.3501 -17.3501
    -2.3310  -2.3310  -1.9803  -1.9803   6.9020   6.9020   6.9505   6.9505
     7.5610   7.5610   7.7828   7.7828   8.0360   8.0360   8.5650   8.5650
     9.0040   9.0040   9.1420   9.1420   9.4641   9.4641   9.6123   9.6123
    10.1516  10.1516  10.3095  10.3095  18.7913  18.7913  18.9668  18.9668
    19.0461  19.0461  19.3040  19.3040  19.8422  19.8422  19.9141  19.9141
    34.0836  34.0836  34.3171  34.3171  35.9453  35.9453  36.3604  36.3604
    36.5331  36.5331  37.4394  37.4394  37.6066  37.6066  38.4853  38.4853
    38.7630  38.7630  39.5912  39.5912  39.9521  39.9521  40.9922  40.9922
    41.4123  41.4123  42.0385  42.0385  43.0458  43.0458  43.0467  43.0467
    44.0323  44.0323  44.3103  44.3103  44.7214  44.7214  45.7396  45.7396
    46.3443  46.3443  46.4547  46.4547  48.0046  48.0046  48.2995  48.2995
    49.0133  49.0133  50.0130  50.0130  50.4547  50.4547  51.0355  51.0356
    51.3522  51.3521  52.2454  52.2453  52.4766  52.4768  53.4630  53.4628
    55.8505  55.8509  56.3622

          k =-0.5000 0.0000 0.0000 (  3722 PWs)   bands (ev):

   -18.1210 -18.1210 -17.8699 -17.8699 -17.6909 -17.6909 -17.3097 -17.3097
    -2.4720  -2.4720  -2.2825  -2.2825   5.9765   5.9765   6.8600   6.8600
     7.0836   7.0836   7.2602   7.2602   7.8676   7.8676   8.9471   8.9471
     9.0500   9.0500   9.1897   9.1897   9.9620   9.9620  10.0885  10.0885
    10.2992  10.2992  10.7482  10.7482  18.9030  18.9030  19.5754  19.5754
    19.9349  19.9349  19.9556  19.9556  20.2700  20.2700  20.5994  20.5994
    34.4500  34.4500  35.4105  35.4105  36.0527  36.0527  36.2162  36.2162
    36.7162  36.7162  36.8894  36.8894  37.3984  37.3984  37.5481  37.5481
    38.0385  38.0385  38.3053  38.3053  39.0452  39.0452  39.3839  39.3839
    39.9611  39.9611  41.2001  41.2001  42.0519  42.0519  42.4855  42.4855
    42.7232  42.7232  44.2587  44.2587  45.2369  45.2369  45.8883  45.8883
    46.9298  46.9298  46.9734  46.9734  47.2464  47.2464  48.2349  48.2349
    48.7048  48.7048  49.0518  49.0518  50.4156  50.4156  51.9580  51.9580
    52.2837  52.2835  52.7917  52.7919  53.4101  53.4099  53.6372  53.6372
    53.7162  53.7164  55.1872

          k =-0.5000 0.0000 0.1317 (  3710 PWs)   bands (ev):

   -18.1117 -18.1117 -17.8870 -17.8870 -17.6814 -17.6814 -17.3099 -17.3099
    -2.4764  -2.4764  -2.2684  -2.2684   6.0896   6.0896   6.4001   6.4001
     6.9168   6.9168   7.6997   7.6997   8.1242   8.1242   8.5540   8.5540
     9.0435   9.0435   9.4262   9.4262   9.9172   9.9172  10.1854  10.1854
    10.3087  10.3087  10.7475  10.7475  18.9557  18.9557  19.5458  19.5458
    19.7616  19.7616  20.0605  20.0605  20.2190  20.2190  20.5473  20.5473
    34.7614  34.7614  35.0844  35.0844  35.9110  35.9110  36.1757  36.1757
    36.8912  36.8912  36.9910  36.9910  37.7036  37.7036  37.7923  37.7923
    37.9227  37.9227  38.6346  38.6346  39.0049  39.0049  39.3879  39.3879
    40.0386  40.0386  40.6381  40.6381  41.6132  41.6132  42.2926  42.2926
    43.0959  43.0959  44.7974  44.7974  45.1985  45.1985  45.6124  45.6124
    46.1551  46.1551  47.1820  47.1820  47.6536  47.6536  47.8882  47.8882
    48.6535  48.6535  49.4886  49.4886  50.3106  50.3106  51.3380  51.3379
    52.4090  52.4089  52.9416  52.9414  53.2707  53.2709  53.5891  53.5893
    54.0467  54.0469  54.9033

          k =-0.5000 0.0000-0.2634 (  3680 PWs)   bands (ev):

   -18.0996 -18.0996 -17.9047 -17.9047 -17.6725 -17.6725 -17.3102 -17.3102
    -2.4800  -2.4800  -2.2547  -2.2547   6.1421   6.1421   6.2912   6.2912
     6.7100   6.7100   7.8943   7.8943   8.1130   8.1130   8.7750   8.7750
     9.1105   9.1105   9.1425   9.1425  10.0349  10.0349  10.2230  10.2230
    10.3366  10.3366  10.7543  10.7543  19.0667  19.0667  19.4461  19.4461
    19.6314  19.6314  20.0773  20.0773  20.2640  20.2640  20.4581  20.4581
    34.7468  34.7468  35.4250  35.4250  35.5902  35.5902  36.3401  36.3401
    36.6203  36.6203  37.3055  37.3055  37.7742  37.7742  37.8708  37.8708
    38.3844  38.3844  38.4422  38.4422  38.7594  38.7594  39.3566  39.3566
    40.4125  40.4125  40.7552  40.7552  41.5553  41.5553  41.7408  41.7408
    43.3440  43.3440  44.3776  44.3776  44.8045  44.8045  45.5101  45.5101
    46.8050  46.8050  46.9574  46.9574  47.0738  47.0738  48.0660  48.0660
    48.8723  48.8723  49.8197  49.8198  50.8834  50.8834  51.0305  51.0306
    52.3357  52.3357  52.8877  52.8877  53.2364  53.2363  53.2961  53.2958
    53.7972  53.7975  55.1928

          k =-0.5000 0.2533 0.0000 (  3686 PWs)   bands (ev):

   -18.0231 -18.0231 -17.9004 -17.9004 -17.6326 -17.6326 -17.4405 -17.4405
    -2.5056  -2.5056  -2.4145  -2.4145   6.5045   6.5045   7.0259   7.0259
     7.4105   7.4105   7.8875   7.8875   8.1081   8.1081   8.5193   8.5193
     8.6327   8.6327   9.2847   9.2847   9.8452   9.8452   9.9784   9.9784
    10.2011  10.2011  10.3204  10.3204  19.0998  19.0998  19.2833  19.2833
    19.4345  19.4345  19.5260  19.5260  20.2912  20.2912  20.3280  20.3280
    35.1368  35.1368  35.7548  35.7548  36.4217  36.4217  36.6510  36.6510
    36.9214  36.9214  37.0052  37.0052  37.7954  37.7954  38.0879  38.0879
    38.8940  38.8940  39.0958  39.0958  39.3393  39.3393  39.7565  39.7565
    40.4733  40.4733  40.5447  40.5447  41.6714  41.6714  42.5016  42.5016
    43.2336  43.2336  44.1457  44.1457  44.8759  44.8759  45.2472  45.2472
    45.8460  45.8460  46.5442  46.5442  47.2970  47.2970  48.2205  48.2205
    48.7398  48.7398  49.0805  49.0805  49.6917  49.6917  50.6205  50.6205
    51.0953  51.0954  51.2576  51.2573  52.1530  52.1531  54.0051  54.0049
    54.2068  54.2068  55.7886

          k =-0.5000 0.2533 0.1317 (  3692 PWs)   bands (ev):

   -18.0172 -18.0172 -17.9078 -17.9078 -17.6309 -17.6309 -17.4417 -17.4417
    -2.5049  -2.5049  -2.4053  -2.4053   6.4570   6.4570   6.8284   6.8284
     7.4844   7.4844   7.6888   7.6888   8.2352   8.2352   8.5211   8.5211
     8.9225   8.9225   9.4252   9.4252   9.7895   9.7895   9.9314   9.9314
    10.1488  10.1488  10.3302  10.3302  19.1049  19.1049  19.1982  19.1982
    19.5123  19.5123  19.5776  19.5776  20.1389  20.1389  20.2787  20.2787
    35.1263  35.1263  35.7261  35.7261  36.2732  36.2732  36.6301  36.6301
    36.9462  36.9462  37.4794  37.4794  38.0956  38.0956  38.3508  38.3508
    38.6474  38.6474  39.0289  39.0289  39.2817  39.2817  39.7015  39.7015
    40.3613  40.3613  40.9682  40.9682  41.7367  41.7367  42.5162  42.5162
    43.4589  43.4589  43.6038  43.6038  44.7676  44.7676  44.9861  44.9861
    45.9231  45.9231  46.5736  46.5736  47.3080  47.3080  47.9066  47.9066
    48.1211  48.1211  48.8091  48.8091  49.4361  49.4361  50.0774  50.0774
    51.2002  51.2000  51.4322  51.4322  52.6234  52.6234  54.1414  54.1416
    54.6497  54.6501  55.4577

          k =-0.5000 0.2533-0.2634 (  3704 PWs)   bands (ev):

   -18.0095 -18.0095 -17.9166 -17.9166 -17.6302 -17.6302 -17.4434 -17.4434
    -2.5040  -2.5040  -2.3965  -2.3965   6.3221   6.3221   7.0350   7.0350
     7.1059   7.1059   7.6058   7.6058   8.5012   8.5012   8.5552   8.5552
     9.0680   9.0680   9.5594   9.5594   9.7419   9.7419   9.8392   9.8392
    10.1993  10.1993  10.2644  10.2644  19.0963  19.0963  19.1570  19.1570
    19.5402  19.5402  19.6813  19.6813  19.9885  19.9885  20.1917  20.1917
    34.9475  34.9475  36.0078  36.0078  36.1908  36.1908  36.6386  36.6386
    37.4099  37.4099  37.5116  37.5116  37.7931  37.7931  38.3517  38.3517
    38.6465  38.6465  39.0247  39.0247  39.5349  39.5349  40.1219  40.1219
    40.1231  40.1231  41.3490  41.3490  41.5721  41.5721  42.5113  42.5113
    42.8208  42.8208  44.2527  44.2527  44.6087  44.6087  44.8423  44.8423
    45.7728  45.7728  46.4676  46.4676  47.1513  47.1513  47.3895  47.3895
    47.6851  47.6851  48.4858  48.4858  49.0407  49.0407  49.7553  49.7553
    51.5439  51.5440  51.9181  51.9181  53.6482  53.6482  53.7648  53.7648
    54.3800  54.3800  55.6652

     the Fermi energy is    48.4570 ev

!    total energy              =   -1831.58004167 Ry
     Harris-Foulkes estimate   =   -1831.58008010 Ry
     estimated scf accuracy    <       0.00004400 Ry

     The total energy is the sum of the following terms:

     one-electron contribution =     433.24298304 Ry
     hartree contribution      =      89.81531570 Ry
     xc contribution           =    -214.31996337 Ry
     ewald contribution        =   -2139.89566481 Ry
     smearing contrib. (-TS)   =      -0.42271223 Ry

     convergence has been achieved in   9 iterations

     Forces acting on atoms (Ry/au):

     atom    1 type  1   force =     0.00000000   -0.06656812   -0.12010282
     atom    2 type  1   force =     0.00000000    0.06656812    0.12010282
     atom    3 type  1   force =     0.00000000   -0.06656812    0.12010282
     atom    4 type  1   force =     0.00000000    0.06656812   -0.12010282
     atom    5 type  1   force =     0.00000000    0.17571656   -0.20157646
     atom    6 type  1   force =     0.00000000   -0.17571656    0.20157646
     atom    7 type  1   force =     0.00000000    0.17571656    0.20157646
     atom    8 type  1   force =     0.00000000   -0.17571656   -0.20157646
     atom    9 type  2   force =     0.00000000   -0.15146318   -0.05417550
     atom   10 type  2   force =     0.00000000    0.15146318    0.05417550
     atom   11 type  2   force =     0.00000000   -0.15146318    0.05417550
     atom   12 type  2   force =     0.00000000    0.15146318   -0.05417550

     Total force =     0.681884     Total SCF correction =     0.000000


     entering subroutine stress ...

          total   stress  (Ry/bohr**3)                   (kbar)     P= 6413.01
   0.04528233   0.00000000   0.00000000       6661.26      0.00      0.00
   0.00000000   0.04120337   0.00000000          0.00   6061.22      0.00
   0.00000000   0.00000000   0.04429861          0.00      0.00   6516.55


     BFGS Geometry Optimization

     number of scf cycles    =   1
     number of bfgs steps    =   0

     enthalpy new            =   -1831.5800416662 Ry

     new trust radius        =       0.5000000000 bohr
     new conv_thr            =       0.0001000000 Ry

     new unit-cell volume =   1092.14286 a.u.^3 (   161.83887 Ang^3 )

CELL_PARAMETERS (alat=  7.01510508)
   1.085136619   0.000000000   0.000000000
   0.000000000   1.417907973   0.000000000
   0.000000000   0.000000000   2.056101005

ATOMIC_POSITIONS (crystal)
Co       0.750000000   0.825858705   0.435057631
Co       0.250000000   0.174141295   0.564942369
Co       0.750000000   0.325858705   0.064942369
Co       0.250000000   0.674141295   0.935057631
Co       0.250000000   0.538517470   0.281206449
Co       0.750000000   0.461482530   0.718793551
Co       0.250000000   0.038517470   0.218793551
Co       0.750000000   0.961482530   0.781206449
Si       0.250000000   0.201620109   0.893294004
Si       0.750000000   0.798379891   0.106705996
Si       0.250000000   0.701620109   0.606705996
Si       0.750000000   0.298379891   0.393294004



     Writing output data file Prototype-La-oP12-Co2Si.save
     NEW-OLD atomic charge density approx. for the potential
     NEW k-points:
        k(    1) = (   0.0000000   0.0000000   0.0000000), wk =   0.0833333
        k(    2) = (   0.0000000   0.0000000   0.1215894), wk =   0.1666667
        k(    3) = (   0.0000000   0.0000000  -0.2431787), wk =   0.0833333
        k(    4) = (   0.0000000   0.2350881   0.0000000), wk =   0.1666667
        k(    5) = (   0.0000000   0.2350881   0.1215894), wk =   0.3333333
        k(    6) = (   0.0000000   0.2350881  -0.2431787), wk =   0.1666667
        k(    7) = (  -0.4607715   0.0000000   0.0000000), wk =   0.0833333
        k(    8) = (  -0.4607715   0.0000000   0.1215894), wk =   0.1666667
        k(    9) = (  -0.4607715   0.0000000  -0.2431787), wk =   0.0833333
        k(   10) = (  -0.4607715   0.2350881   0.0000000), wk =   0.1666667
        k(   11) = (  -0.4607715   0.2350881   0.1215894), wk =   0.3333333
        k(   12) = (  -0.4607715   0.2350881  -0.2431787), wk =   0.1666667

     total cpu time spent up to now is      106.1 secs

     Self-consistent Calculation

     iteration #  1     ecut=    40.00 Ry     beta=0.70
     CG style diagonalization
     c_bands:  2 eigenvalues not converged
     c_bands:  1 eigenvalues not converged
     c_bands:  1 eigenvalues not converged
     c_bands:  1 eigenvalues not converged
     c_bands:  1 eigenvalues not converged
     ethr =  1.00E-06,  avg # of iterations = 21.6

     total cpu time spent up to now is      145.9 secs

     total energy              =   -1829.80367298 Ry
     Harris-Foulkes estimate   =   -1846.39524079 Ry
     estimated scf accuracy    <      21.68333914 Ry

     iteration #  2     ecut=    40.00 Ry     beta=0.70
     CG style diagonalization
     ethr =  1.00E-02,  avg # of iterations =  3.9

     total cpu time spent up to now is      153.9 secs

     total energy              =   -1831.69984073 Ry
     Harris-Foulkes estimate   =   -1842.65474172 Ry
     estimated scf accuracy    <      20.23375530 Ry

     iteration #  3     ecut=    40.00 Ry     beta=0.70
     CG style diagonalization
     ethr =  1.00E-02,  avg # of iterations =  3.5

     total cpu time spent up to now is      161.2 secs

     total energy              =   -1837.08013889 Ry
     Harris-Foulkes estimate   =   -1838.44699935 Ry
     estimated scf accuracy    <       2.98925055 Ry

     iteration #  4     ecut=    40.00 Ry     beta=0.70
     CG style diagonalization
     ethr =  1.56E-03,  avg # of iterations =  3.4

     total cpu time spent up to now is      167.8 secs

     total energy              =   -1837.61438429 Ry
     Harris-Foulkes estimate   =   -1837.66892716 Ry
     estimated scf accuracy    <       0.10585932 Ry

     iteration #  5     ecut=    40.00 Ry     beta=0.70
     CG style diagonalization
     ethr =  5.51E-05,  avg # of iterations =  4.0

     total cpu time spent up to now is      175.8 secs

     total energy              =   -1837.64629493 Ry
     Harris-Foulkes estimate   =   -1837.65136620 Ry
     estimated scf accuracy    <       0.00915300 Ry

     iteration #  6     ecut=    40.00 Ry     beta=0.70
     CG style diagonalization
     c_bands:  1 eigenvalues not converged
     ethr =  4.77E-06,  avg # of iterations =  4.1

     total cpu time spent up to now is      184.0 secs

     total energy              =   -1837.64860651 Ry
     Harris-Foulkes estimate   =   -1837.65177497 Ry
     estimated scf accuracy    <       0.00815875 Ry

     iteration #  7     ecut=    40.00 Ry     beta=0.70
     CG style diagonalization
     ethr =  4.25E-06,  avg # of iterations =  3.5

     total cpu time spent up to now is      190.6 secs

     total energy              =   -1837.64990814 Ry
     Harris-Foulkes estimate   =   -1837.65015493 Ry
     estimated scf accuracy    <       0.00057510 Ry

     iteration #  8     ecut=    40.00 Ry     beta=0.70
     CG style diagonalization
     c_bands:  1 eigenvalues not converged
     ethr =  3.00E-07,  avg # of iterations =  3.6

     total cpu time spent up to now is      197.5 secs

     End of self-consistent calculation

          k = 0.0000 0.0000 0.0000 (  3675 PWs)   bands (ev):

   -27.4196 -27.2105 -27.1889 -27.1139 -27.0461 -26.9297 -26.8610 -26.8489
   -11.6611 -11.6610 -11.5764 -11.5350  -1.3161  -1.1977  -0.9444  -0.9311
    -0.8492  -0.6437  -0.5578  -0.5563  -0.4371  -0.3518  -0.0466  -0.0427
    -0.0052   0.0145   0.0690   0.0983   0.3158   0.3414   0.3856   0.4846
     0.5861   0.6594   1.0508   1.1519   9.4832   9.6334   9.7026   9.7557
     9.7592   9.9832  10.0053  10.0192  10.1049  10.1463  10.2878  10.3825
    26.2078  26.3597  26.4056  27.0177  27.1102  27.1161  27.2950  27.4554
    27.6631  28.5271  28.5997  28.8351  29.0443  29.2725  29.5679  29.8184
    29.8635  30.0869  30.4545  31.0294  31.3615  31.6971  31.7028  31.9543
    32.0749  32.1937  32.2010  32.4785  32.5786  32.9439  33.0720  33.2011
    33.3064  33.6508  33.8210  34.0161  34.4701  34.6404  34.6908  35.8863
    35.9731  36.0253  36.3404  36.4823  36.6332  37.2016  37.4321  37.6727
    38.1471  38.1676  38.5542  39.2839  39.4293  39.7860  39.8070  39.8114
    40.8114  40.9299  41.1467  41.1592  41.3358  41.8774  42.4702  42.5371
    42.7523  44.8634  45.0500

          k = 0.0000 0.0000 0.1216 (  3675 PWs)   bands (ev):

   -27.4011 -27.2768 -27.1413 -27.1187 -27.0292 -26.9497 -26.8538 -26.8488
   -11.6552 -11.6358 -11.5908 -11.5511  -1.2564  -1.1710  -1.0049  -0.9160
    -0.8769  -0.8073  -0.7054  -0.4414  -0.3757  -0.3525  -0.1593  -0.0628
    -0.0017   0.0711   0.1168   0.1541   0.3029   0.3606   0.4570   0.4972
     0.5735   0.7167   1.0628   1.1270   9.5176   9.6584   9.6626   9.7276
     9.7772   9.9566  10.0007  10.0426  10.0613  10.1361  10.2940  10.3599
    26.2308  26.2723  26.6302  26.6768  26.6993  27.1614  27.6022  27.7251
    27.9881  28.3625  29.1272  29.1464  29.3592  29.4369  29.6567  29.7934
    29.9625  29.9709  30.3143  31.0645  31.1263  31.4166  31.4277  31.5905
    31.5941  31.6450  32.1505  32.4804  32.5774  32.6143  32.7422  32.9495
    33.7047  33.8191  34.2485  34.4914  34.6898  35.1028  35.1048  35.3452
    35.5397  35.6650  36.3040  36.5205  36.6816  37.2390  37.2678  37.3245
    38.0762  38.4223  38.9848  39.2179  39.2784  39.6389  39.8537  40.0498
    40.6054  40.7372  40.9665  41.0290  41.3281  42.0950  42.3545  42.7659
    44.5391  44.6288  45.0954

          k = 0.0000 0.0000-0.2432 (  3690 PWs)   bands (ev):

   -27.3556 -27.3556 -27.1213 -27.1213 -26.9876 -26.9876 -26.8541 -26.8541
   -11.6249 -11.6249 -11.5916 -11.5916  -1.0985  -1.0985  -1.0886  -1.0886
    -0.8937  -0.8937  -0.6467  -0.6467  -0.2689  -0.2689  -0.1526  -0.1526
     0.0935   0.0935   0.1229   0.1229   0.3634   0.3634   0.3956   0.3956
     0.6985   0.6985   1.0875   1.0875   9.5902   9.5902   9.6948   9.6948
     9.8421   9.8421  10.0132  10.0132  10.0962  10.0962  10.3172  10.3172
    26.2949  26.2949  26.3403  26.3403  27.0119  27.0119  28.2589  28.2589
    28.5114  28.5114  28.7015  28.7015  29.6582  29.6582  29.8431  29.8431
    30.0524  30.0524  30.4397  30.4397  30.8942  30.8942  31.2072  31.2072
    31.3772  31.3772  32.6238  32.6238  32.6479  32.6479  33.0135  33.0135
    33.5603  33.5603  34.0053  34.0053  34.9204  34.9204  35.3093  35.3093
    35.8650  35.8650  36.3406  36.3406  36.7055  36.7055  37.2321  37.2321
    38.8587  38.8587  38.9992  38.9992  39.3767  39.3767  39.9265  39.9265
    40.1497  40.1498  40.8250  40.8250  41.8738  41.8738  43.4103  43.4104
    44.5302  44.5303  46.1478

          k = 0.0000 0.2351 0.0000 (  3664 PWs)   bands (ev):

   -27.3518 -27.2374 -27.1532 -27.1438 -27.0230 -26.9194 -26.9100 -26.8676
   -11.6997 -11.6975 -11.5563 -11.5383  -1.1142  -0.9317  -0.7480  -0.7337
    -0.6821  -0.6606  -0.5956  -0.5748  -0.4488  -0.3064  -0.2608  -0.1153
    -0.0477   0.0595   0.1673   0.2980   0.3588   0.3609   0.4443   0.4509
     0.5788   0.6094   0.7379   0.8405   9.5644   9.5767   9.5935   9.5960
     9.7361   9.8106   9.8728   9.8834  10.0147  10.1198  10.1392  10.2008
    26.9699  27.0533  27.0838  27.1517  27.5937  27.6337  27.8670  28.0703
    28.2808  28.3447  28.8887  29.1963  29.2504  29.3371  29.4176  29.8741
    30.1777  30.2098  30.2953  30.6384  30.7614  31.4544  31.5473  31.8050
    31.9009  31.9200  32.1716  32.4755  32.5617  32.8688  33.1317  33.5017
    33.5627  33.7345  34.0012  34.0838  34.6389  34.7889  35.0324  35.5082
    35.6079  36.0669  36.2758  36.5374  36.8197  36.8421  37.3337  37.5074
    37.5167  37.9156  38.0263  38.8707  38.9405  39.0682  39.0843  39.6631
    39.7104  39.8142  39.8426  40.5958  40.8714  40.9058  41.8255  42.1322
    42.4112  42.4279  45.7718

          k = 0.0000 0.2351 0.1216 (  3669 PWs)   bands (ev):

   -27.3389 -27.2564 -27.1698 -27.1419 -26.9991 -26.9241 -26.9090 -26.8764
   -11.6911 -11.6853 -11.5653 -11.5503  -1.0681  -0.9898  -0.8763  -0.7759
    -0.7423  -0.6078  -0.5566  -0.5391  -0.4296  -0.3394  -0.2919  -0.0825
    -0.0161   0.1026   0.1974   0.2440   0.3239   0.3290   0.4419   0.5364
     0.5616   0.6556   0.7612   0.8293   9.5716   9.5878   9.5910   9.6122
     9.7208   9.7514   9.8394   9.9406   9.9431  10.0983  10.1620  10.2155
    26.7975  26.9011  27.0555  27.3107  27.4464  27.7683  28.1083  28.1888
    28.4560  28.5988  29.0213  29.1061  29.1566  29.5359  29.5743  30.0302
    30.0814  30.2133  30.4750  30.4867  30.8831  31.1436  31.4519  31.5541
    31.6797  32.2124  32.2369  32.3541  32.7090  32.8303  33.0127  33.2614
    33.4308  33.6488  33.7831  34.0571  34.5643  34.8219  34.8804  35.4814
    35.5892  35.8483  35.8845  36.4889  36.5226  36.9269  37.3235  37.7708
    37.8105  38.0418  38.2354  38.7429  38.8362  39.0657  39.3911  39.5632
    39.7292  39.8368  39.9586  40.2026  40.7621  40.8515  41.6958  42.2972
    42.8201  43.4501  45.8412

          k = 0.0000 0.2351-0.2432 (  3666 PWs)   bands (ev):

   -27.3010 -27.3010 -27.1603 -27.1603 -26.9534 -26.9534 -26.8918 -26.8918
   -11.6755 -11.6755 -11.5702 -11.5702  -0.9877  -0.9877  -0.9382  -0.9382
    -0.6759  -0.6759  -0.4810  -0.4810  -0.4580  -0.4580  -0.1646  -0.1646
     0.1459   0.1459   0.1854   0.1854   0.2980   0.2980   0.4664   0.4664
     0.6674   0.6674   0.8008   0.8008   9.5779   9.5779   9.6629   9.6629
     9.6692   9.6692   9.8467   9.8467  10.0284  10.0284  10.1996  10.1996
    26.7300  26.7300  27.0268  27.0268  27.9335  27.9335  28.4304  28.4304
    28.5444  28.5444  29.1522  29.1522  29.2713  29.2713  29.9601  29.9601
    30.2006  30.2006  30.4184  30.4184  30.7822  30.7822  31.5768  31.5768
    31.6345  31.6345  32.3127  32.3127  32.9094  32.9094  33.0140  33.0140
    33.5514  33.5514  34.2380  34.2380  34.2631  34.2631  34.8284  34.8284
    35.6187  35.6187  35.9886  35.9886  36.8246  36.8246  37.5252  37.5252
    38.0646  38.0646  38.6757  38.6757  38.9151  38.9151  39.2806  39.2806
    39.8808  39.8808  40.5537  40.5537  40.5566  40.5566  41.6130  41.6130
    44.5196  44.5196  45.4514

          k =-0.4608 0.0000 0.0000 (  3722 PWs)   bands (ev):

   -27.2291 -27.2291 -27.1633 -27.1633 -27.0694 -27.0694 -26.8643 -26.8643
   -11.7083 -11.7083 -11.6387 -11.6387  -1.4662  -1.4662  -0.9868  -0.9868
    -0.9582  -0.9582  -0.7953  -0.7953  -0.4782  -0.4782  -0.0017  -0.0017
     0.1025   0.1025   0.1293   0.1293   0.5417   0.5417   0.6205   0.6205
     0.7455   0.7455   1.0751   1.0751   9.5736   9.5736   9.8607   9.8607
    10.0958  10.0958  10.1501  10.1501  10.2011  10.2011  10.2935  10.2936
    26.8094  26.8094  27.4797  27.4797  28.0328  28.0328  28.5099  28.5099
    28.6517  28.6517  28.8631  28.8631  28.8853  28.8853  29.3392  29.3392
    29.7382  29.7382  29.9950  29.9950  30.4294  30.4294  30.4377  30.4377
    31.2830  31.2830  31.8411  31.8411  32.4728  32.4728  32.9742  32.9742
    33.1081  33.1081  34.3318  34.3318  35.1007  35.1007  35.5037  35.5037
    35.9968  35.9968  36.6656  36.6656  36.9907  36.9907  37.1021  37.1021
    37.4367  37.4367  38.2022  38.2022  38.7642  38.7642  40.1256  40.1256
    40.5580  40.5580  41.0218  41.0218  41.4421  41.4421  41.7768  41.7768
    42.1385  42.1387  42.6363

          k =-0.4608 0.0000 0.1216 (  3710 PWs)   bands (ev):

   -27.2258 -27.2258 -27.1635 -27.1635 -27.0645 -27.0645 -26.8634 -26.8634
   -11.7088 -11.7088 -11.6368 -11.6368  -1.4160  -1.4160  -1.2289  -1.2289
    -0.9370  -0.9370  -0.6278  -0.6278  -0.3537  -0.3537  -0.1083  -0.1083
    -0.0296  -0.0296   0.2648   0.2648   0.5448   0.5448   0.6672   0.6672
     0.7421   0.7421   1.0718   1.0718   9.5770   9.5770   9.8844   9.8844
    10.0660  10.0660  10.1506  10.1506  10.1935  10.1935  10.2778  10.2778
    27.0334  27.0334  27.2163  27.2163  28.1712  28.1712  28.2526  28.2526
    28.7279  28.7279  28.8981  28.8981  29.1376  29.1376  29.5781  29.5781
    29.6465  29.6465  30.1888  30.1888  30.3432  30.3432  30.6537  30.6537
    31.1179  31.1179  31.5218  31.5218  32.4623  32.4623  32.7698  32.7698
    33.3519  33.3519  34.3154  34.3154  34.5013  34.5013  35.2283  35.2283
    35.8811  35.8811  36.6765  36.6765  37.2204  37.2204  37.2930  37.2930
    37.6951  37.6951  38.1699  38.1699  38.8933  38.8933  39.9390  39.9391
    40.7714  40.7715  41.0671  41.0672  41.3353  41.3355  41.5666  41.5667
    41.9961  41.9963  43.4103

          k =-0.4608 0.0000-0.2432 (  3680 PWs)   bands (ev):

   -27.2134 -27.2134 -27.1647 -27.1647 -27.0567 -27.0567 -26.8629 -26.8629
   -11.7089 -11.7088 -11.6350 -11.6350  -1.3679  -1.3679  -1.3040  -1.3040
    -1.0219  -1.0219  -0.4452  -0.4452  -0.3400  -0.3400  -0.0858  -0.0858
    -0.0718  -0.0718   0.2195   0.2195   0.5848   0.5848   0.7171   0.7171
     0.7497   0.7497   1.0835   1.0835   9.5857   9.5857   9.9085   9.9085
    10.0355  10.0355  10.1518  10.1518  10.1912  10.1912  10.2592  10.2592
    26.9791  26.9791  27.6052  27.6052  27.7053  27.7053  28.4251  28.4251
    28.5050  28.5050  29.1403  29.1403  29.4627  29.4627  29.6527  29.6527
    29.7942  29.7942  30.0747  30.0747  30.2621  30.2621  30.5163  30.5163
    31.3285  31.3285  31.7966  31.7966  32.1499  32.1499  32.3147  32.3147
    33.4795  33.4795  33.9618  33.9618  34.6864  34.6864  34.9784  34.9784
    35.9562  35.9562  36.1520  36.1520  36.9136  36.9136  37.5153  37.5153
    38.0100  38.0100  38.9832  38.9832  38.9980  38.9980  39.3226  39.3226
    40.9458  40.9459  41.1640  41.1640  41.3464  41.3464  41.6063  41.6063
    42.2899  42.2901  43.7304

          k =-0.4608 0.2351 0.0000 (  3686 PWs)   bands (ev):

   -27.1944 -27.1944 -27.1686 -27.1686 -27.0241 -27.0241 -26.9201 -26.9201
   -11.7094 -11.7094 -11.6746 -11.6746  -1.1609  -1.1609  -0.9155  -0.9155
    -0.8455  -0.8455  -0.5222  -0.5222  -0.3626  -0.3626  -0.1746  -0.1746
    -0.0632  -0.0632   0.1716   0.1716   0.5675   0.5675   0.5731   0.5731
     0.7063   0.7063   0.8052   0.8052   9.6199   9.6199   9.7454   9.7454
     9.9106   9.9106   9.9866   9.9866  10.1868  10.1868  10.2107  10.2107
    27.4768  27.4768  28.0123  28.0123  28.4076  28.4076  28.4686  28.4686
    28.8476  28.8476  28.8697  28.8697  29.5958  29.5958  29.8114  29.8114
    30.2474  30.2474  30.4501  30.4501  30.6084  30.6084  30.8425  30.8425
    31.2101  31.2101  31.2556  31.2556  32.3075  32.3075  32.8406  32.8406
    33.3360  33.3360  34.0293  34.0293  34.1201  34.1201  34.8758  34.8758
    35.7367  35.7367  36.0277  36.0277  36.8721  36.8721  37.0403  37.0403
    37.9218  37.9218  38.0700  38.0700  38.4019  38.4019  39.2288  39.2288
    39.7294  39.7294  39.7581  39.7581  40.2308  40.2309  41.5330  41.5330
    43.4220  43.4222  43.6261

          k =-0.4608 0.2351 0.1216 (  3692 PWs)   bands (ev):

   -27.1968 -27.1968 -27.1699 -27.1699 -27.0236 -27.0236 -26.9200 -26.9200
   -11.7092 -11.7092 -11.6738 -11.6738  -1.1968  -1.1968  -0.9845  -0.9845
    -0.7455  -0.7455  -0.6366  -0.6366  -0.3278  -0.3278  -0.2240  -0.2240
     0.0499   0.0499   0.2722   0.2722   0.5265   0.5265   0.5502   0.5502
     0.6944   0.6944   0.7953   0.7953   9.6218   9.6218   9.7563   9.7563
     9.9193   9.9193   9.9837   9.9837  10.1415  10.1415  10.1979  10.1979
    27.5529  27.5529  27.8375  27.8375  28.3128  28.3128  28.6893  28.6893
    28.8531  28.8531  29.2138  29.2138  29.6203  29.6203  29.8925  29.8925
    30.0110  30.0110  30.4237  30.4237  30.5575  30.5575  30.7565  30.7565
    31.2155  31.2155  31.6377  31.6377  32.3950  32.3950  32.7778  32.7778
    33.4413  33.4413  33.6064  33.6064  34.1128  34.1128  34.7871  34.7871
    35.4296  35.4296  35.9453  35.9453  36.9258  36.9258  37.0407  37.0407
    37.6236  37.6236  37.7924  37.7924  38.2857  38.2857  38.9598  38.9598
    39.7690  39.7690  40.1192  40.1192  40.5530  40.5530  41.9721  41.9721
    43.2650  43.2652  43.9965

          k =-0.4608 0.2351-0.2432 (  3704 PWs)   bands (ev):

   -27.1954 -27.1954 -27.1732 -27.1732 -27.0279 -27.0279 -26.9216 -26.9216
   -11.7092 -11.7092 -11.6731 -11.6731  -1.2563  -1.2563  -0.8724  -0.8724
    -0.8553  -0.8553  -0.7076  -0.7076  -0.3476  -0.3476  -0.1786  -0.1786
     0.1302   0.1302   0.3912   0.3912   0.4572   0.4572   0.4946   0.4946
     0.7139   0.7139   0.7763   0.7763   9.6206   9.6206   9.7636   9.7636
     9.9376   9.9376   9.9816   9.9816  10.0950  10.0950  10.1765  10.1765
    27.4168  27.4168  28.0859  28.0859  28.2298  28.2298  28.8010  28.8010
    29.0247  29.0247  29.2370  29.2370  29.4943  29.4943  29.9161  29.9161
    30.0028  30.0028  30.3234  30.3234  30.5782  30.5782  30.9702  30.9702
    31.1920  31.1920  32.0783  32.0783  32.1707  32.1707  32.6947  32.6947
    32.8357  32.8357  34.0772  34.0772  34.1930  34.1930  34.8375  34.8375
    35.1595  35.1595  35.5566  35.5566  36.7521  36.7521  36.9138  36.9138
    37.2978  37.2978  37.7288  37.7288  38.2135  38.2135  38.6958  38.6958
    39.9440  39.9441  40.3416  40.3416  41.6506  41.6508  41.6997  41.6997
    43.1874  43.1874  43.9899

     the Fermi energy is    37.5443 ev

!    total energy              =   -1837.65001189 Ry
     Harris-Foulkes estimate   =   -1837.65004514 Ry
     estimated scf accuracy    <       0.00003748 Ry

     The total energy is the sum of the following terms:

     one-electron contribution =     221.82716848 Ry
     hartree contribution      =     125.75834683 Ry
     xc contribution           =    -206.67190555 Ry
     ewald contribution        =   -1978.04382772 Ry
     smearing contrib. (-TS)   =      -0.51979392 Ry

     convergence has been achieved in   8 iterations

     Forces acting on atoms (Ry/au):

     atom    1 type  1   force =     0.00000000   -0.03917015   -0.07104132
     atom    2 type  1   force =     0.00000000    0.03917015    0.07104132
     atom    3 type  1   force =     0.00000000   -0.03917015    0.07104132
     atom    4 type  1   force =     0.00000000    0.03917015   -0.07104132
     atom    5 type  1   force =     0.00000000    0.10670522   -0.10272069
     atom    6 type  1   force =     0.00000000   -0.10670522    0.10272069
     atom    7 type  1   force =     0.00000000    0.10670522    0.10272069
     atom    8 type  1   force =     0.00000000   -0.10670522   -0.10272069
     atom    9 type  2   force =     0.00000000   -0.07597587   -0.04708225
     atom   10 type  2   force =     0.00000000    0.07597587    0.04708225
     atom   11 type  2   force =     0.00000000   -0.07597587    0.04708225
     atom   12 type  2   force =     0.00000000    0.07597587   -0.04708225

     Total force =     0.382140     Total SCF correction =     0.000000


     entering subroutine stress ...

          total   stress  (Ry/bohr**3)                   (kbar)     P= 1935.82
   0.01372000   0.00000000   0.00000000       2018.28      0.00      0.00
   0.00000000   0.01226282   0.00000000          0.00   1803.92      0.00
   0.00000000   0.00000000   0.01349558          0.00      0.00   1985.27


     number of scf cycles    =   2
     number of bfgs steps    =   1

     enthalpy old            =   -1831.5800416662 Ry
     enthalpy new            =   -1837.6500118907 Ry

     CASE: enthalpy_new < enthalpy_old

     small trust_radius: resetting bfgs history

     new trust radius        =       2.2670641121 bohr
     new conv_thr            =       0.0001000000 Ry

     new unit-cell volume =   2562.98582 a.u.^3 (   379.79531 Ang^3 )

CELL_PARAMETERS (alat=  7.01510508)
   1.457338450   0.000000000   0.000000000
   0.000000000   1.852596744   0.000000000
   0.000000000   0.000000000   2.749807816

ATOMIC_POSITIONS (crystal)
Co       0.750000000   0.821920729   0.430132334
Co       0.250000000   0.178079271   0.569867666
Co       0.750000000   0.321920729   0.069867666
Co       0.250000000   0.678079271   0.930132334
Co       0.250000000   0.549245091   0.274084821
Co       0.750000000   0.450754909   0.725915179
Co       0.250000000   0.049245091   0.225915179
Co       0.750000000   0.950754909   0.774084821
Si       0.250000000   0.193981867   0.890029791
Si       0.750000000   0.806018133   0.109970209
Si       0.250000000   0.693981867   0.609970209
Si       0.750000000   0.306018133   0.390029791



     Writing output data file Prototype-La-oP12-Co2Si.save
     NEW-OLD atomic charge density approx. for the potential
     NEW k-points:
        k(    1) = (   0.0000000   0.0000000   0.0000000), wk =   0.0833333
        k(    2) = (   0.0000000   0.0000000   0.0909154), wk =   0.1666667
        k(    3) = (   0.0000000   0.0000000  -0.1818309), wk =   0.0833333
        k(    4) = (   0.0000000   0.1799276   0.0000000), wk =   0.1666667
        k(    5) = (   0.0000000   0.1799276   0.0909154), wk =   0.3333333
        k(    6) = (   0.0000000   0.1799276  -0.1818309), wk =   0.1666667
        k(    7) = (  -0.3430912   0.0000000   0.0000000), wk =   0.0833333
        k(    8) = (  -0.3430912   0.0000000   0.0909154), wk =   0.1666667
        k(    9) = (  -0.3430912   0.0000000  -0.1818309), wk =   0.0833333
        k(   10) = (  -0.3430912   0.1799276   0.0000000), wk =   0.1666667
        k(   11) = (  -0.3430912   0.1799276   0.0909154), wk =   0.3333333
        k(   12) = (  -0.3430912   0.1799276  -0.1818309), wk =   0.1666667

     total cpu time spent up to now is      201.4 secs

     Self-consistent Calculation

     iteration #  1     ecut=    40.00 Ry     beta=0.70
     CG style diagonalization
     c_bands:  2 eigenvalues not converged
     c_bands:  3 eigenvalues not converged
     c_bands:  3 eigenvalues not converged
     ethr =  1.00E-06,  avg # of iterations = 26.2

     total cpu time spent up to now is      247.8 secs

     total energy              =   -1742.83227113 Ry
     Harris-Foulkes estimate   =   -1968.76059324 Ry
     estimated scf accuracy    <     294.94138214 Ry

     iteration #  2     ecut=    40.00 Ry     beta=0.70
     CG style diagonalization
     ethr =  1.00E-02,  avg # of iterations =  6.1

     total cpu time spent up to now is      260.7 secs

     total energy              =   -1770.16277753 Ry
     Harris-Foulkes estimate   =   -1870.24956185 Ry
     estimated scf accuracy    <     165.62946070 Ry

     iteration #  3     ecut=    40.00 Ry     beta=0.70
     CG style diagonalization
     ethr =  1.00E-02,  avg # of iterations =  6.8

     total cpu time spent up to now is      275.0 secs

     total energy              =   -1826.73710770 Ry
     Harris-Foulkes estimate   =   -1857.87855980 Ry
     estimated scf accuracy    <      79.71487135 Ry

     iteration #  4     ecut=    40.00 Ry     beta=0.70
     CG style diagonalization
     ethr =  1.00E-02,  avg # of iterations =  3.9

     total cpu time spent up to now is      282.8 secs

     total energy              =   -1828.02288360 Ry
     Harris-Foulkes estimate   =   -1831.33584552 Ry
     estimated scf accuracy    <      20.94551094 Ry

     iteration #  5     ecut=    40.00 Ry     beta=0.70
     CG style diagonalization
     ethr =  1.00E-02,  avg # of iterations =  3.1

     total cpu time spent up to now is      288.5 secs

     total energy              =   -1826.30713231 Ry
     Harris-Foulkes estimate   =   -1828.81831630 Ry
     estimated scf accuracy    <       8.84930097 Ry

     iteration #  6     ecut=    40.00 Ry     beta=0.70
     CG style diagonalization
     ethr =  4.61E-03,  avg # of iterations =  3.9

     total cpu time spent up to now is      295.9 secs

     total energy              =   -1827.88046823 Ry
     Harris-Foulkes estimate   =   -1828.61383550 Ry
     estimated scf accuracy    <       2.78477244 Ry

     iteration #  7     ecut=    40.00 Ry     beta=0.70
     CG style diagonalization
     ethr =  1.45E-03,  avg # of iterations =  3.4

     total cpu time spent up to now is      302.9 secs

     total energy              =   -1828.42887840 Ry
     Harris-Foulkes estimate   =   -1828.41292067 Ry
     estimated scf accuracy    <       0.03718850 Ry

     iteration #  8     ecut=    40.00 Ry     beta=0.70
     CG style diagonalization
     c_bands:  4 eigenvalues not converged
     c_bands:  1 eigenvalues not converged
     ethr =  1.94E-05,  avg # of iterations =  6.1

     total cpu time spent up to now is      315.2 secs

     total energy              =   -1828.43098369 Ry
     Harris-Foulkes estimate   =   -1828.57103768 Ry
     estimated scf accuracy    <       1.06016879 Ry

     iteration #  9     ecut=    40.00 Ry     beta=0.70
     CG style diagonalization
     ethr =  1.94E-05,  avg # of iterations =  3.9

     total cpu time spent up to now is      322.6 secs

     total energy              =   -1828.44961355 Ry
     Harris-Foulkes estimate   =   -1828.47991010 Ry
     estimated scf accuracy    <       0.12468732 Ry

     iteration # 10     ecut=    40.00 Ry     beta=0.70
     CG style diagonalization
     ethr =  1.94E-05,  avg # of iterations =  3.6

     total cpu time spent up to now is      329.3 secs

     total energy              =   -1828.46767900 Ry
     Harris-Foulkes estimate   =   -1828.47118461 Ry
     estimated scf accuracy    <       0.02640542 Ry

     iteration # 11     ecut=    40.00 Ry     beta=0.70
     CG style diagonalization
     ethr =  1.38E-05,  avg # of iterations =  3.0

     total cpu time spent up to now is      334.9 secs

     total energy              =   -1828.46886256 Ry
     Harris-Foulkes estimate   =   -1828.46895934 Ry
     estimated scf accuracy    <       0.00275036 Ry

     iteration # 12     ecut=    40.00 Ry     beta=0.70
     CG style diagonalization
     ethr =  1.43E-06,  avg # of iterations =  3.3

     total cpu time spent up to now is      342.0 secs

     total energy              =   -1828.46860584 Ry
     Harris-Foulkes estimate   =   -1828.46898370 Ry
     estimated scf accuracy    <       0.00170556 Ry

     iteration # 13     ecut=    40.00 Ry     beta=0.70
     CG style diagonalization
     ethr =  8.88E-07,  avg # of iterations =  3.2

     total cpu time spent up to now is      347.8 secs

     total energy              =   -1828.46886292 Ry
     Harris-Foulkes estimate   =   -1828.46887336 Ry
     estimated scf accuracy    <       0.00015498 Ry

     iteration # 14     ecut=    40.00 Ry     beta=0.70
     CG style diagonalization
     ethr =  8.07E-08,  avg # of iterations =  3.7

     total cpu time spent up to now is      354.7 secs

     total energy              =   -1828.46886972 Ry
     Harris-Foulkes estimate   =   -1828.46888515 Ry
     estimated scf accuracy    <       0.00010367 Ry

     iteration # 15     ecut=    40.00 Ry     beta=0.70
     CG style diagonalization
     ethr =  5.40E-08,  avg # of iterations =  3.0

     total cpu time spent up to now is      360.2 secs

     End of self-consistent calculation

          k = 0.0000 0.0000 0.0000 (  3675 PWs)   bands (ev):

   -46.8467 -46.8169 -46.7929 -46.7270 -46.7086 -46.6460 -46.6046 -46.5621
   -34.9852 -34.9838 -34.9792 -34.9647 -20.8829 -20.8638 -20.8527 -20.8488
   -20.8442 -20.8419 -20.8404 -20.8267 -20.8153 -20.8094 -20.8068 -20.8035
   -20.8010 -20.7900 -20.7528 -20.7513 -20.7404 -20.7333 -20.7321 -20.7205
   -20.7195 -20.7090 -20.6882 -20.6790 -12.7790 -12.7371 -12.7238 -12.7187
   -12.7052 -12.6978 -12.6961 -12.6913 -12.6868 -12.6776 -12.6706 -12.6473
     8.6531   9.2863   9.5149   9.5771   9.5940   9.5968   9.6399   9.6547
     9.6580   9.7730   9.7881   9.9934  10.0382  10.0604  10.1418  10.2585
    10.2981  10.2997  10.4976  10.6188  10.6810  10.7108  10.7246  10.7853
    10.8615  10.8880  11.0041  11.0323  11.0694  11.2270  11.2711  11.3112
    11.3367  11.3713  11.3788  11.4191  11.6818  11.8014  11.8785  12.0422
    12.0651  12.1803  12.2072  12.2263  12.5159  12.5759  12.8087  12.8988
    12.9044  12.9393  12.9893  13.4137  13.4545  13.4637  13.4783  13.4870
    13.6483  13.9540  14.0181  14.0207  14.0689  14.0825  14.1678  14.8069
    14.9764  15.9138  16.0990

          k = 0.0000 0.0000 0.0909 (  3675 PWs)   bands (ev):

   -46.8538 -46.8295 -46.8196 -46.7252 -46.6647 -46.6445 -46.6373 -46.5214
   -34.9995 -34.9987 -34.9704 -34.9402 -20.8786 -20.8630 -20.8585 -20.8503
   -20.8499 -20.8495 -20.8433 -20.8273 -20.8226 -20.8116 -20.8097 -20.7993
   -20.7984 -20.7841 -20.7571 -20.7421 -20.7405 -20.7327 -20.7262 -20.7177
   -20.7160 -20.7097 -20.6976 -20.6778 -12.7724 -12.7541 -12.7454 -12.7308
   -12.7238 -12.7020 -12.6838 -12.6732 -12.6719 -12.6700 -12.6599 -12.6461
     8.7796   9.3458   9.4511   9.4561   9.5150   9.5497   9.5918   9.6198
     9.7764   9.7768   9.8658   9.8960  10.0874  10.2077  10.2445  10.2665
    10.2872  10.3130  10.4441  10.6393  10.6664  10.6823  10.6946  10.7410
    10.7579  10.8481  10.9655  10.9868  11.0567  11.1233  11.1884  11.2291
    11.4052  11.4813  11.6332  11.6351  11.7495  11.7572  11.8448  11.9011
    11.9800  12.0487  12.1740  12.2944  12.3645  12.4505  12.9021  12.9071
    12.9308  12.9709  13.1352  13.4005  13.4230  13.4245  13.5030  13.5198
    13.6459  13.7289  13.9723  14.0176  14.0413  14.0566  14.5417  14.9235
    15.6633  15.6971  16.0366

          k = 0.0000 0.0000-0.1818 (  3690 PWs)   bands (ev):

   -46.8867 -46.8867 -46.7604 -46.7604 -46.7037 -46.7037 -46.6000 -46.6000
   -34.9990 -34.9990 -34.9806 -34.9806 -20.8787 -20.8787 -20.8564 -20.8564
   -20.8529 -20.8529 -20.8488 -20.8488 -20.8237 -20.8237 -20.8040 -20.8040
   -20.7842 -20.7842 -20.7556 -20.7556 -20.7467 -20.7467 -20.7292 -20.7292
   -20.7147 -20.7147 -20.6977 -20.6977 -12.7852 -12.7852 -12.7544 -12.7544
   -12.7171 -12.7171 -12.6836 -12.6836 -12.6661 -12.6661 -12.6592 -12.6592
     9.1016   9.1016   9.3705   9.3705   9.5181   9.5181   9.5627   9.5627
     9.9059   9.9059   9.9608   9.9608  10.0050  10.0050  10.2972  10.2972
    10.3408  10.3408  10.5112  10.5112  10.5939  10.5939  10.7071  10.7071
    10.8242  10.8242  10.9576  10.9576  11.1713  11.1713  11.2270  11.2270
    11.3501  11.3501  11.6202  11.6202  11.8015  11.8015  11.8752  11.8752
    12.0522  12.0522  12.1999  12.1999  12.2291  12.2291  12.9309  12.9309
    13.0902  13.0902  13.2148  13.2148  13.3494  13.3494  13.5353  13.5353
    13.6315  13.6315  13.9975  13.9975  14.0291  14.0291  15.2554  15.2555
    15.5387  15.5388  16.1645

          k = 0.0000 0.1799 0.0000 (  3664 PWs)   bands (ev):

   -46.8314 -46.7884 -46.7786 -46.7499 -46.6587 -46.6058 -46.5605 -46.5556
   -35.0104 -35.0004 -34.9267 -34.9223 -20.8586 -20.8492 -20.8467 -20.8453
   -20.8368 -20.8358 -20.8322 -20.8291 -20.8248 -20.8176 -20.8048 -20.7981
   -20.7969 -20.7690 -20.7532 -20.7508 -20.7419 -20.7317 -20.7295 -20.7287
   -20.7078 -20.7077 -20.7019 -20.6903 -12.7576 -12.7485 -12.7276 -12.7258
   -12.7179 -12.7097 -12.6940 -12.6839 -12.6632 -12.6523 -12.6504 -12.6415
     9.1012   9.5295   9.6492   9.7352   9.7373   9.7578   9.8071   9.8351
     9.9149   9.9334   9.9531   9.9761  10.0449  10.1205  10.2075  10.2135
    10.2330  10.3066  10.4165  10.5002  10.5636  10.6055  10.6546  10.7180
    10.9039  10.9538  10.9723  11.0626  11.0918  11.1550  11.2262  11.3009
    11.3065  11.4108  11.4527  11.5133  11.6511  11.7859  11.8224  11.9218
    12.0708  12.1296  12.1794  12.1955  12.3835  12.4873  12.5861  12.6345
    12.7785  12.9196  13.0811  13.1843  13.1866  13.3237  13.3355  13.4887
    13.5160  13.5774  13.5980  13.7384  13.7673  13.8752  14.0519  14.0691
    14.2658  14.4768  16.6229

          k = 0.0000 0.1799 0.0909 (  3669 PWs)   bands (ev):

   -46.8742 -46.7963 -46.7684 -46.7355 -46.6639 -46.6286 -46.5855 -46.5578
   -35.0012 -34.9946 -34.9550 -34.9344 -20.8708 -20.8577 -20.8506 -20.8457
   -20.8410 -20.8405 -20.8348 -20.8244 -20.8187 -20.8128 -20.8085 -20.8013
   -20.7988 -20.7772 -20.7494 -20.7414 -20.7411 -20.7316 -20.7254 -20.7251
   -20.7164 -20.7128 -20.7043 -20.6945 -12.7727 -12.7549 -12.7426 -12.7315
   -12.7116 -12.7038 -12.6890 -12.6808 -12.6801 -12.6580 -12.6451 -12.6388
     9.2057   9.5396   9.5828   9.6608   9.6960   9.7683   9.7917   9.8373
     9.9240   9.9744  10.0155  10.0462  10.0981  10.1461  10.1895  10.2176
    10.2447  10.3478  10.3613  10.5324  10.5802  10.5803  10.6330  10.7306
    10.8966  10.9101  10.9617  11.0223  11.0863  11.1477  11.2317  11.2487
    11.2937  11.3321  11.4817  11.5074  11.5935  11.7510  11.8122  11.8954
    11.9418  12.0465  12.0792  12.1814  12.3061  12.5120  12.7355  12.7470
    12.8301  12.9637  13.0153  13.0904  13.1313  13.2271  13.3832  13.4628
    13.5327  13.6120  13.6752  13.6822  13.7806  13.8574  13.9646  14.0691
    14.6715  15.1597  16.8932

          k = 0.0000 0.1799-0.1818 (  3666 PWs)   bands (ev):

   -46.7963 -46.7963 -46.7234 -46.7234 -46.6489 -46.6489 -46.6144 -46.6144
   -34.9795 -34.9795 -34.9577 -34.9577 -20.8571 -20.8571 -20.8433 -20.8433
   -20.8384 -20.8384 -20.8328 -20.8328 -20.8087 -20.8087 -20.8034 -20.8034
   -20.7920 -20.7920 -20.7450 -20.7450 -20.7389 -20.7389 -20.7222 -20.7222
   -20.7168 -20.7168 -20.7011 -20.7011 -12.7694 -12.7694 -12.7299 -12.7299
   -12.6928 -12.6928 -12.6768 -12.6768 -12.6763 -12.6763 -12.6494 -12.6494
     9.4548   9.4548   9.5519   9.5519   9.6919   9.6919   9.8512   9.8512
     9.9236   9.9236  10.1066  10.1066  10.1270  10.1270  10.2262  10.2262
    10.2739  10.2739  10.4885  10.4885  10.6565  10.6565  10.6756  10.6756
    10.7302  10.7302  11.0315  11.0315  11.1692  11.1692  11.1793  11.1793
    11.3107  11.3107  11.5173  11.5173  11.5449  11.5449  11.8099  11.8099
    11.9004  11.9004  12.1173  12.1173  12.4196  12.4196  12.8820  12.8820
    12.9336  12.9336  13.0153  13.0153  13.0675  13.0675  13.4321  13.4321
    13.5712  13.5712  13.7552  13.7552  13.7833  13.7833  13.9759  13.9759
    15.6834  15.6835  16.4861

          k =-0.3431 0.0000 0.0000 (  3722 PWs)   bands (ev):

   -46.8827 -46.8827 -46.8241 -46.8241 -46.7683 -46.7683 -46.7624 -46.7624
   -35.0346 -35.0346 -35.0314 -35.0314 -20.8852 -20.8852 -20.8713 -20.8713
   -20.8694 -20.8694 -20.8517 -20.8517 -20.8321 -20.8321 -20.8090 -20.8090
   -20.7966 -20.7966 -20.7684 -20.7684 -20.7601 -20.7601 -20.7390 -20.7390
   -20.7124 -20.7124 -20.6897 -20.6897 -12.7735 -12.7735 -12.7527 -12.7527
   -12.7334 -12.7334 -12.7202 -12.7202 -12.7049 -12.7049 -12.6856 -12.6856
     9.3736   9.3736   9.5416   9.5416   9.7347   9.7347   9.7384   9.7384
     9.8954   9.8954  10.1003  10.1003  10.2430  10.2430  10.3115  10.3115
    10.3452  10.3452  10.4699  10.4699  10.4770  10.4770  10.5957  10.5957
    10.8764  10.8764  10.9852  10.9852  11.0691  11.0691  11.3690  11.3690
    11.3867  11.3867  11.4045  11.4045  11.7059  11.7059  12.0227  12.0227
    12.2474  12.2474  12.4533  12.4533  12.4638  12.4638  12.8531  12.8531
    12.8867  12.8867  13.1083  13.1083  13.1950  13.1950  13.6193  13.6193
    13.6230  13.6230  13.6818  13.6818  14.0249  14.0249  14.2284  14.2284
    14.4418  14.4418  14.8856

          k =-0.3431 0.0000 0.0909 (  3710 PWs)   bands (ev):

   -46.8325 -46.8325 -46.8228 -46.8228 -46.7697 -46.7697 -46.7103 -46.7103
   -35.0236 -35.0236 -35.0140 -35.0140 -20.8809 -20.8809 -20.8679 -20.8679
   -20.8616 -20.8616 -20.8501 -20.8501 -20.8298 -20.8298 -20.8041 -20.8041
   -20.7961 -20.7961 -20.7611 -20.7611 -20.7591 -20.7591 -20.7290 -20.7290
   -20.7155 -20.7155 -20.6937 -20.6937 -12.7673 -12.7673 -12.7379 -12.7379
   -12.7287 -12.7287 -12.7176 -12.7176 -12.6995 -12.6995 -12.6808 -12.6808
     9.4062   9.4062   9.5158   9.5158   9.7606   9.7606   9.8513   9.8513
     9.8692   9.8692  10.0799  10.0799  10.1640  10.1640  10.2488  10.2488
    10.4014  10.4014  10.5227  10.5227  10.6170  10.6170  10.6682  10.6682
    10.8587  10.8587  10.8995  10.8995  11.1246  11.1246  11.1957  11.1957
    11.2808  11.2808  11.3521  11.3521  11.7098  11.7098  11.8276  11.8276
    12.2543  12.2543  12.2774  12.2774  12.6330  12.6330  12.9218  12.9218
    13.0280  13.0280  13.2030  13.2030  13.2427  13.2427  13.4215  13.4215
    13.6691  13.6691  13.8033  13.8033  14.0640  14.0640  14.0788  14.0788
    14.5503  14.5503  15.2444

          k =-0.3431 0.0000-0.1818 (  3680 PWs)   bands (ev):

   -46.7952 -46.7952 -46.7706 -46.7706 -46.6810 -46.6810 -46.6471 -46.6471
   -34.9941 -34.9941 -34.9761 -34.9761 -20.8841 -20.8841 -20.8551 -20.8551
   -20.8540 -20.8540 -20.8312 -20.8312 -20.8216 -20.8216 -20.8006 -20.8006
   -20.7889 -20.7889 -20.7552 -20.7552 -20.7496 -20.7496 -20.7239 -20.7239
   -20.6988 -20.6988 -20.6865 -20.6865 -12.7586 -12.7586 -12.7424 -12.7424
   -12.7054 -12.7054 -12.6954 -12.6954 -12.6803 -12.6803 -12.6554 -12.6554
     9.4015   9.4015   9.6419   9.6419   9.6787   9.6787   9.8300   9.8300
     9.9480   9.9480  10.0209  10.0209  10.2671  10.2671  10.3203  10.3203
    10.4299  10.4299  10.5655  10.5655  10.6304  10.6304  10.6425  10.6425
    10.8489  10.8489  10.8541  10.8541  10.8765  10.8765  11.2102  11.2102
    11.2589  11.2589  11.3589  11.3589  11.6720  11.6720  11.9149  11.9149
    12.0360  12.0360  12.2456  12.2456  12.7630  12.7630  12.9622  12.9622
    12.9652  12.9652  13.2320  13.2320  13.2651  13.2651  13.4493  13.4493
    13.7288  13.7288  13.8680  13.8680  13.9929  13.9929  14.1130  14.1130
    14.7402  14.7402  15.7752

          k =-0.3431 0.1799 0.0000 (  3686 PWs)   bands (ev):

   -46.7830 -46.7830 -46.7795 -46.7795 -46.7308 -46.7308 -46.6847 -46.6847
   -35.0137 -35.0137 -34.9836 -34.9836 -20.8616 -20.8616 -20.8591 -20.8591
   -20.8521 -20.8521 -20.8235 -20.8235 -20.8231 -20.8231 -20.7962 -20.7962
   -20.7792 -20.7792 -20.7593 -20.7593 -20.7579 -20.7579 -20.7403 -20.7403
   -20.7002 -20.7002 -20.6997 -20.6997 -12.7484 -12.7484 -12.7371 -12.7371
   -12.7186 -12.7186 -12.6970 -12.6970 -12.6810 -12.6810 -12.6807 -12.6807
     9.5910   9.5910   9.7792   9.7792   9.8702   9.8702   9.9184   9.9184
    10.1289  10.1289  10.1988  10.1988  10.4308  10.4308  10.4354  10.4354
    10.4617  10.4617  10.5664  10.5664  10.6523  10.6523  10.6830  10.6830
    10.7507  10.7507  10.7634  10.7634  10.9644  10.9644  11.1749  11.1749
    11.2165  11.2165  11.5029  11.5029  11.5653  11.5653  11.6772  11.6772
    11.9851  11.9851  12.2108  12.2108  12.5428  12.5428  12.5946  12.5946
    12.9340  12.9340  12.9959  12.9959  13.2364  13.2364  13.2882  13.2882
    13.5212  13.5212  13.5277  13.5277  13.6578  13.6578  14.0132  14.0132
    14.8856  15.0851  15.0860

          k =-0.3431 0.1799 0.0909 (  3692 PWs)   bands (ev):

   -46.7929 -46.7929 -46.7735 -46.7735 -46.7365 -46.7365 -46.7101 -46.7101
   -35.0206 -35.0206 -34.9851 -34.9851 -20.8641 -20.8641 -20.8583 -20.8583
   -20.8499 -20.8499 -20.8370 -20.8370 -20.8184 -20.8184 -20.8032 -20.8032
   -20.7821 -20.7821 -20.7576 -20.7576 -20.7532 -20.7532 -20.7453 -20.7453
   -20.7048 -20.7048 -20.7029 -20.7029 -12.7715 -12.7715 -12.7369 -12.7369
   -12.7139 -12.7139 -12.7018 -12.7018 -12.6845 -12.6845 -12.6735 -12.6735
     9.6294   9.6294   9.7109   9.7109   9.9592   9.9592  10.0225  10.0225
    10.1480  10.1480  10.1950  10.1950  10.2314  10.2314  10.4202  10.4202
    10.4819  10.4819  10.5945  10.5945  10.6434  10.6434  10.7044  10.7044
    10.7920  10.7920  10.8220  10.8220  11.0385  11.0385  11.0734  11.0734
    11.2365  11.2365  11.4004  11.4004  11.5573  11.5573  11.6325  11.6325
    11.8756  11.8756  12.0789  12.0789  12.5172  12.5172  12.7143  12.7143
    12.9199  12.9199  12.9864  12.9864  13.1740  13.1740  13.3530  13.3530
    13.4615  13.4615  13.6711  13.6711  13.7057  13.7057  14.0995  14.0995
    14.7478  14.7478  15.3750

          k =-0.3431 0.1799-0.1818 (  3704 PWs)   bands (ev):

   -46.8204 -46.8204 -46.7994 -46.7994 -46.7414 -46.7414 -46.7366 -46.7366
   -35.0393 -35.0393 -34.9889 -34.9889 -20.8719 -20.8719 -20.8627 -20.8627
   -20.8495 -20.8495 -20.8352 -20.8352 -20.8310 -20.8310 -20.8064 -20.8064
   -20.7880 -20.7880 -20.7620 -20.7620 -20.7552 -20.7552 -20.7494 -20.7494
   -20.7082 -20.7082 -20.7065 -20.7065 -12.7896 -12.7896 -12.7572 -12.7572
   -12.7113 -12.7113 -12.7063 -12.7063 -12.6921 -12.6921 -12.6654 -12.6654
     9.6020   9.6020   9.8505   9.8505   9.8855   9.8855  10.0843  10.0843
    10.0878  10.0878  10.2433  10.2433  10.3203  10.3203  10.4113  10.4113
    10.4545  10.4545  10.5157  10.5157  10.6223  10.6223  10.6960  10.6960
    10.7290  10.7290  10.9005  10.9005  11.0016  11.0016  11.1838  11.1838
    11.1974  11.1974  11.3506  11.3506  11.5210  11.5210  11.6386  11.6386
    11.7273  11.7273  12.0168  12.0168  12.5135  12.5135  12.6632  12.6632
    12.9491  12.9491  12.9950  12.9950  13.1907  13.1907  13.2765  13.2765
    13.5000  13.5000  13.7011  13.7011  13.9561  13.9561  14.0299  14.0299
    14.9421  14.9421  14.9953

     the Fermi energy is    12.7773 ev

!    total energy              =   -1828.46887016 Ry
     Harris-Foulkes estimate   =   -1828.46887600 Ry
     estimated scf accuracy    <       0.00000625 Ry

     The total energy is the sum of the following terms:

     one-electron contribution =    -451.16737984 Ry
     hartree contribution      =     303.85079850 Ry
     xc contribution           =    -191.19162635 Ry
     ewald contribution        =   -1488.56341258 Ry
     smearing contrib. (-TS)   =      -1.39724989 Ry

     convergence has been achieved in  15 iterations

     Forces acting on atoms (Ry/au):

     atom    1 type  1   force =     0.00000000   -0.00197878   -0.00524257
     atom    2 type  1   force =     0.00000000    0.00197878    0.00524257
     atom    3 type  1   force =     0.00000000   -0.00197878    0.00524257
     atom    4 type  1   force =     0.00000000    0.00197878   -0.00524257
     atom    5 type  1   force =     0.00000000   -0.00006892    0.00766506
     atom    6 type  1   force =     0.00000000    0.00006892   -0.00766506
     atom    7 type  1   force =     0.00000000   -0.00006892   -0.00766506
     atom    8 type  1   force =     0.00000000    0.00006892    0.00766506
     atom    9 type  2   force =     0.00000000    0.00145955   -0.00841671
     atom   10 type  2   force =     0.00000000   -0.00145955    0.00841671
     atom   11 type  2   force =     0.00000000    0.00145955    0.00841671
     atom   12 type  2   force =     0.00000000   -0.00145955   -0.00841671

     Total force =     0.025544     Total SCF correction =     0.000000


     entering subroutine stress ...

          total   stress  (Ry/bohr**3)                   (kbar)     P=-1423.41
  -0.00988563   0.00000000   0.00000000      -1454.23      0.00      0.00
   0.00000000  -0.00939676   0.00000000          0.00  -1382.31      0.00
   0.00000000   0.00000000  -0.00974596          0.00      0.00  -1433.68


     number of scf cycles    =   3
     number of bfgs steps    =   2

     enthalpy old            =   -1837.6500118907 Ry
     enthalpy new            =   -1828.4688701606 Ry

     CASE: enthalpy_new > enthalpy_old

     new trust radius        =       0.7888023890 bohr

     trust_radius < trust_radius_min

     resetting bfgs history

     Message from routine bfgs:
     history already reset at previous step: stopping
     new conv_thr            =       0.0001000000 Ry

     new unit-cell volume =   1309.47480 a.u.^3 (   194.04414 Ang^3 )

CELL_PARAMETERS (alat=  7.01510508)
   1.157102615   0.000000000   0.000000000
   0.000000000   1.497458113   0.000000000
   0.000000000   0.000000000   2.189112316

ATOMIC_POSITIONS (crystal)
Co       0.750000000   0.825278380   0.434364876
Co       0.250000000   0.174721620   0.565635124
Co       0.750000000   0.325278380   0.065635124
Co       0.250000000   0.674721620   0.934364876
Co       0.250000000   0.540098359   0.280204774
Co       0.750000000   0.459901641   0.719795226
Co       0.250000000   0.040098359   0.219795226
Co       0.750000000   0.959901641   0.780204774
Si       0.250000000   0.200494491   0.892834884
Si       0.750000000   0.799505509   0.107165116
Si       0.250000000   0.700494491   0.607165116
Si       0.750000000   0.299505509   0.392834884



     Writing output data file Prototype-La-oP12-Co2Si.save
     NEW-OLD atomic charge density approx. for the potential
     NEW k-points:
        k(    1) = (   0.0000000   0.0000000   0.0000000), wk =   0.0833333
        k(    2) = (   0.0000000   0.0000000   0.1142015), wk =   0.1666667
        k(    3) = (   0.0000000   0.0000000  -0.2284031), wk =   0.0833333
        k(    4) = (   0.0000000   0.2225994   0.0000000), wk =   0.1666667
        k(    5) = (   0.0000000   0.2225994   0.1142015), wk =   0.3333333
        k(    6) = (   0.0000000   0.2225994  -0.2284031), wk =   0.1666667
        k(    7) = (  -0.4321138   0.0000000   0.0000000), wk =   0.0833333
        k(    8) = (  -0.4321138   0.0000000   0.1142015), wk =   0.1666667
        k(    9) = (  -0.4321138   0.0000000  -0.2284031), wk =   0.0833333
        k(   10) = (  -0.4321138   0.2225994   0.0000000), wk =   0.1666667
        k(   11) = (  -0.4321138   0.2225994   0.1142015), wk =   0.3333333
        k(   12) = (  -0.4321138   0.2225994  -0.2284031), wk =   0.1666667

     total cpu time spent up to now is      364.0 secs

     Self-consistent Calculation

     iteration #  1     ecut=    40.00 Ry     beta=0.70
     CG style diagonalization
     c_bands:  4 eigenvalues not converged
     c_bands:  1 eigenvalues not converged
     c_bands:  1 eigenvalues not converged
     c_bands:  5 eigenvalues not converged
     c_bands:  4 eigenvalues not converged
     c_bands:  2 eigenvalues not converged
     c_bands:  3 eigenvalues not converged
     ethr =  1.00E-06,  avg # of iterations = 30.3

     total cpu time spent up to now is      418.5 secs

     total energy              =   -1780.41457701 Ry
     Harris-Foulkes estimate   =   -1933.78575600 Ry
     estimated scf accuracy    <     194.37611858 Ry

     iteration #  2     ecut=    40.00 Ry     beta=0.70
     CG style diagonalization
     c_bands:  1 eigenvalues not converged
     ethr =  1.00E-02,  avg # of iterations =  6.5

     total cpu time spent up to now is      431.3 secs

     total energy              =   -1815.43717154 Ry
     Harris-Foulkes estimate   =   -1863.63450133 Ry
     estimated scf accuracy    <      77.08614766 Ry

     iteration #  3     ecut=    40.00 Ry     beta=0.70
     CG style diagonalization
     ethr =  1.00E-02,  avg # of iterations =  5.1

     total cpu time spent up to now is      441.7 secs

     total energy              =   -1831.94542362 Ry
     Harris-Foulkes estimate   =   -1844.12660865 Ry
     estimated scf accuracy    <      27.07420697 Ry

     iteration #  4     ecut=    40.00 Ry     beta=0.70
     CG style diagonalization
     ethr =  1.00E-02,  avg # of iterations =  3.6

     total cpu time spent up to now is      448.7 secs

     total energy              =   -1838.37636903 Ry
     Harris-Foulkes estimate   =   -1839.61509588 Ry
     estimated scf accuracy    <       3.13829634 Ry

     iteration #  5     ecut=    40.00 Ry     beta=0.70
     CG style diagonalization
     ethr =  1.63E-03,  avg # of iterations =  3.6

     total cpu time spent up to now is      456.1 secs

     total energy              =   -1838.85618603 Ry
     Harris-Foulkes estimate   =   -1839.01008652 Ry
     estimated scf accuracy    <       0.32149761 Ry

     iteration #  6     ecut=    40.00 Ry     beta=0.70
     CG style diagonalization
     c_bands:  1 eigenvalues not converged
     c_bands:  1 eigenvalues not converged
     c_bands:  1 eigenvalues not converged
     ethr =  1.67E-04,  avg # of iterations =  3.9

     total cpu time spent up to now is      463.7 secs

     total energy              =   -1838.92764915 Ry
     Harris-Foulkes estimate   =   -1838.95747738 Ry
     estimated scf accuracy    <       0.06767094 Ry

     iteration #  7     ecut=    40.00 Ry     beta=0.70
     CG style diagonalization
     c_bands:  1 eigenvalues not converged
     ethr =  3.52E-05,  avg # of iterations =  3.6

     total cpu time spent up to now is      470.6 secs

     total energy              =   -1838.94041438 Ry
     Harris-Foulkes estimate   =   -1838.94515924 Ry
     estimated scf accuracy    <       0.01224425 Ry

     iteration #  8     ecut=    40.00 Ry     beta=0.70
     CG style diagonalization
     c_bands:  1 eigenvalues not converged
     ethr =  6.38E-06,  avg # of iterations =  3.6

     total cpu time spent up to now is      477.8 secs

     total energy              =   -1838.94205341 Ry
     Harris-Foulkes estimate   =   -1838.94281589 Ry
     estimated scf accuracy    <       0.00144593 Ry

     iteration #  9     ecut=    40.00 Ry     beta=0.70
     CG style diagonalization
     ethr =  7.53E-07,  avg # of iterations =  4.0

     total cpu time spent up to now is      485.3 secs

     total energy              =   -1838.94246219 Ry
     Harris-Foulkes estimate   =   -1838.94252855 Ry
     estimated scf accuracy    <       0.00012985 Ry

     iteration # 10     ecut=    40.00 Ry     beta=0.70
     CG style diagonalization
     c_bands:  1 eigenvalues not converged
     ethr =  6.76E-08,  avg # of iterations =  4.2

     total cpu time spent up to now is      493.2 secs

     End of self-consistent calculation

          k = 0.0000 0.0000 0.0000 (  3675 PWs)   bands (ev):

   -33.2900 -33.2075 -33.1989 -33.1916 -33.1441 -33.0725 -32.9927 -32.9912
   -18.1923 -18.1918 -18.1673 -18.1604  -6.5229  -6.5102  -6.3207  -6.3152
    -6.3050  -6.1439  -6.0907  -6.0608  -6.0300  -6.0015  -5.8081  -5.7811
    -5.7783  -5.7778  -5.6983  -5.6731  -5.6140  -5.5290  -5.5026  -5.4541
    -5.4422  -5.3399  -5.1142  -5.0546   3.3734   3.4363   3.4860   3.5004
     3.5208   3.5923   3.6075   3.6256   3.6748   3.7223   3.7555   3.8684
    21.4991  21.7905  21.7932  22.2274  22.2527  22.3580  22.3810  22.4376
    22.6448  22.7289  23.2383  23.4806  23.8070  23.9708  24.1893  24.2166
    24.2563  24.3716  24.8003  25.3175  25.6049  25.7650  25.7813  25.9207
    25.9345  25.9792  25.9925  26.4593  26.6354  26.6538  26.7206  26.9439
    26.9693  27.3808  27.4178  27.4898  27.7577  28.1069  28.1224  29.0644
    29.1497  29.4361  29.4936  29.5304  29.9189  30.0984  30.5214  30.6623
    30.9261  30.9681  31.6622  31.6957  32.1547  32.3055  32.3413  32.3436
    33.2782  33.3402  33.5392  33.5542  33.5600  34.0035  34.3626  34.4970
    34.5143  36.6727  37.1499

          k = 0.0000 0.0000 0.1142 (  3675 PWs)   bands (ev):

   -33.2783 -33.2258 -33.2008 -33.1903 -33.1310 -33.0943 -32.9983 -32.9690
   -18.1894 -18.1859 -18.1711 -18.1655  -6.5074  -6.4711  -6.3523  -6.3483
    -6.2617  -6.2377  -6.1837  -6.0651  -5.9844  -5.9689  -5.8770  -5.7976
    -5.7871  -5.7018  -5.7001  -5.6511  -5.5773  -5.4878  -5.4734  -5.4602
    -5.4337  -5.3430  -5.1115  -5.0762   3.4000   3.4467   3.4734   3.4890
     3.5029   3.5771   3.6226   3.6380   3.6795   3.6949   3.7750   3.8467
    21.5937  21.7057  21.8933  21.9122  22.0194  22.3126  22.6956  22.7502
    22.7837  22.9488  23.2074  23.8186  24.0102  24.0516  24.0517  24.2319
    24.3400  24.3489  24.6450  25.3162  25.3582  25.4251  25.4801  25.6335
    25.7100  25.8322  26.0094  26.3156  26.5359  26.5638  26.5690  26.6413
    27.3394  27.5818  27.7456  27.9436  28.0744  28.2556  28.5852  28.6066
    28.7985  29.0349  29.2993  29.7062  29.9015  30.1330  30.2393  30.5291
    30.9042  31.2789  31.6661  31.9460  32.0294  32.2057  32.3824  32.5406
    32.7195  33.1091  33.4010  33.4192  33.7106  34.1804  34.4682  34.7773
    36.2139  36.3175  37.2291

          k = 0.0000 0.0000-0.2284 (  3690 PWs)   bands (ev):

   -33.2699 -33.2699 -33.1985 -33.1985 -33.1043 -33.1043 -32.9908 -32.9908
   -18.1802 -18.1802 -18.1770 -18.1770  -6.4609  -6.4609  -6.3778  -6.3778
    -6.2922  -6.2922  -6.1497  -6.1497  -5.9484  -5.9484  -5.8428  -5.8428
    -5.7336  -5.7336  -5.6800  -5.6800  -5.5387  -5.5387  -5.4788  -5.4788
    -5.3939  -5.3939  -5.1048  -5.1048   3.4473   3.4473   3.4533   3.4533
     3.5268   3.5268   3.6491   3.6491   3.6655   3.6655   3.8031   3.8031
    21.6524  21.6524  21.7512  21.7512  22.1884  22.1884  23.1239  23.1239
    23.3271  23.3271  23.4276  23.4276  23.4938  23.4938  24.3585  24.3585
    24.4988  24.4988  24.6659  24.6659  25.1451  25.1451  25.4703  25.4703
    25.5094  25.5094  26.5008  26.5008  26.6366  26.6366  26.6454  26.6454
[...]
     estimated scf accuracy    <       1.85280390 Ry

     iteration #  6     ecut=    40.00 Ry     beta=0.70
     CG style diagonalization
     ethr =  9.65E-04,  avg # of iterations =  4.1

     total cpu time spent up to now is      781.6 secs

     total energy              =   -1841.64327829 Ry
     Harris-Foulkes estimate   =   -1841.82031709 Ry
     estimated scf accuracy    <       0.52797853 Ry

     iteration #  7     ecut=    40.00 Ry     beta=0.70
     CG style diagonalization
     ethr =  2.75E-04,  avg # of iterations =  3.6

     total cpu time spent up to now is      792.8 secs

     total energy              =   -1841.68478483 Ry
     Harris-Foulkes estimate   =   -1841.80750407 Ry
     estimated scf accuracy    <       0.40709476 Ry

     iteration #  8     ecut=    40.00 Ry     beta=0.70
     CG style diagonalization
     ethr =  2.12E-04,  avg # of iterations =  3.1

     total cpu time spent up to now is      801.6 secs

     total energy              =   -1841.72413912 Ry
     Harris-Foulkes estimate   =   -1841.73259444 Ry
     estimated scf accuracy    <       0.02338936 Ry

     iteration #  9     ecut=    40.00 Ry     beta=0.70
     CG style diagonalization
     c_bands:  1 eigenvalues not converged
     ethr =  1.22E-05,  avg # of iterations =  4.3

     total cpu time spent up to now is      814.8 secs

     total energy              =   -1841.72998149 Ry
     Harris-Foulkes estimate   =   -1841.73090726 Ry
     estimated scf accuracy    <       0.00163116 Ry

     iteration # 10     ecut=    40.00 Ry     beta=0.70
     CG style diagonalization
     c_bands:  2 eigenvalues not converged
     c_bands:  1 eigenvalues not converged
     c_bands:  1 eigenvalues not converged
     c_bands:  1 eigenvalues not converged
     ethr =  8.50E-07,  avg # of iterations =  4.6

     total cpu time spent up to now is      828.4 secs

     total energy              =   -1841.73060178 Ry
     Harris-Foulkes estimate   =   -1841.73065650 Ry
     estimated scf accuracy    <       0.00014442 Ry

     iteration # 11     ecut=    40.00 Ry     beta=0.70
     CG style diagonalization
     ethr =  7.52E-08,  avg # of iterations =  4.0

     total cpu time spent up to now is      840.2 secs

     End of self-consistent calculation

          k = 0.0000 0.0000 0.0000 (  5623 PWs)   bands (ev):

   -33.4185 -33.3392 -33.3142 -33.2933 -33.2329 -33.1818 -33.1227 -33.1189
   -18.0586 -18.0571 -18.0304 -18.0222  -6.8545  -6.8172  -6.6883  -6.6382
    -6.6287  -6.4934  -6.4431  -6.4215  -6.3890  -6.3702  -6.1859  -6.1593
    -6.1584  -6.1579  -6.0938  -6.0714  -5.9775  -5.9172  -5.9098  -5.8906
    -5.8116  -5.7615  -5.4703  -5.4400   3.2680   3.3177   3.3772   3.3844
     3.3890   3.4843   3.4969   3.4997   3.5312   3.6142   3.6438   3.7368
    21.4775  21.7737  21.7789  22.1893  22.2300  22.3297  22.3448  22.4111
    22.6112  22.7124  23.2190  23.4704  23.7939  23.9585  24.1637  24.1733
    24.2035  24.3464  24.7602  25.2886  25.5937  25.6982  25.7267  25.8948
    25.9048  25.9264  25.9649  26.4545  26.5897  26.6221  26.6887  26.9123
    26.9317  27.3698  27.3784  27.4546  27.6943  28.0967  28.1009  29.0418
    29.1135  29.4253  29.4611  29.4858  29.9234  30.0682  30.5111  30.6485
    30.8727  30.9414  31.6120  31.7012  32.1451  32.2939  32.3249  32.3347
    33.2134  33.3356  33.5084  33.5171  33.5258  33.8500  34.3053  34.3887
    34.5146  36.5432  36.8685

          k = 0.0000 0.0000 0.1142 (  5609 PWs)   bands (ev):

   -33.4105 -33.3602 -33.3028 -33.2933 -33.2235 -33.1870 -33.1215 -33.1193
   -18.0547 -18.0517 -18.0346 -18.0272  -6.8375  -6.7857  -6.7174  -6.6537
    -6.5938  -6.5711  -6.5202  -6.4042  -6.3350  -6.3238  -6.2396  -6.1755
    -6.1632  -6.0932  -6.0919  -6.0763  -5.9652  -5.9150  -5.8948  -5.8567
    -5.8407  -5.7318  -5.4679  -5.4446   3.2833   3.3308   3.3648   3.3792
     3.3898   3.4667   3.5061   3.5061   3.5291   3.5877   3.6614   3.7255
    21.5706  21.6940  21.8750  21.8887  22.0030  22.2822  22.6765  22.7162
    22.7338  22.9209  23.1876  23.7921  23.9799  23.9921  24.0350  24.2165
    24.3130  24.3151  24.6153  25.2828  25.3359  25.3552  25.4466  25.5979
    25.6859  25.8291  25.9783  26.2814  26.5161  26.5217  26.5551  26.5978
    27.3214  27.5643  27.7125  27.9205  28.0303  28.1929  28.5647  28.5824
    28.7623  29.0196  29.2576  29.6774  29.8926  30.0912  30.2228  30.5092
    30.8819  31.2499  31.6641  31.9097  32.0183  32.2079  32.3756  32.5325
    32.6287  33.0994  33.3463  33.3754  33.7039  34.1780  34.3461  34.7031
    36.1018  36.2022  37.1748

          k = 0.0000 0.0000-0.2284 (  5594 PWs)   bands (ev):

   -33.3889 -33.3889 -33.2952 -33.2951 -33.2038 -33.2038 -33.1197 -33.1197
   -18.0447 -18.0447 -18.0393 -18.0393  -6.7834  -6.7834  -6.7124  -6.7124
    -6.6098  -6.6098  -6.4881  -6.4881  -6.2862  -6.2862  -6.2273  -6.2273
    -6.1117  -6.1117  -6.0809  -6.0809  -5.9086  -5.9086  -5.9063  -5.9063
    -5.7532  -5.7532  -5.4567  -5.4567   3.3219   3.3219   3.3562   3.3562
     3.4247   3.4247   3.5196   3.5196   3.5406   3.5406   3.6958   3.6958
    21.6316  21.6316  21.7393  21.7393  22.1667  22.1667  23.0976  23.0976
    23.2991  23.2991  23.3619  23.3619  23.4623  23.4623  24.3401  24.3401
    24.4710  24.4710  24.6349  24.6349  25.1165  25.1165  25.4388  25.4388
    25.4963  25.4963  26.4715  26.4715  26.5986  26.5986  26.6235  26.6235
    27.2797  27.2797  27.5352  27.5352  28.4241  28.4241  28.5924  28.5924
    28.9974  28.9974  29.5065  29.5065  29.5503  29.5503  30.3247  30.3247
    31.6439  31.6439  31.7072  31.7072  31.7587  31.7587  32.5431  32.5431
    32.5924  32.5924  33.2400  33.2401  34.0049  34.0049  35.3011  35.3011
    36.3566  36.3566  37.5856

          k = 0.0000 0.2226 0.0000 (  5557 PWs)   bands (ev):

   -33.3902 -33.3476 -33.3065 -33.3022 -33.2106 -33.1654 -33.1519 -33.1343
   -18.0733 -18.0730 -18.0225 -18.0195  -6.7045  -6.6709  -6.5431  -6.5248
    -6.5157  -6.4881  -6.4695  -6.4457  -6.3517  -6.3228  -6.3079  -6.2108
    -6.2094  -6.0748  -6.0047  -5.9990  -5.9278  -5.9237  -5.9145  -5.8788
    -5.8449  -5.7721  -5.6969  -5.6315   3.2848   3.2911   3.2933   3.3108
     3.3876   3.3963   3.4598   3.4665   3.5278   3.5450   3.6247   3.6566
    22.0940  22.2954  22.3645  22.4330  22.6288  22.6511  22.7596  23.0103
    23.1598  23.2728  23.3316  23.5674  23.8880  24.0150  24.0404  24.1793
    24.2664  24.4265  24.6175  24.6421  25.1308  25.5026  25.6318  25.7144
    25.7988  25.9019  25.9611  26.3548  26.3979  26.6464  26.9860  26.9889
    27.1348  27.2192  27.5164  27.5247  28.1028  28.2348  28.3485  28.6446
    28.8565  29.1936  29.4453  29.5619  29.6129  29.6341  30.3781  30.3980
    30.4073  30.7855  31.0638  31.5302  31.6233  31.7366  31.9998  32.1946
    32.2883  32.3603  32.3709  32.9468  32.9871  33.1307  33.9360  34.2047
    34.2496  34.3052  37.6515

          k = 0.0000 0.2226 0.1142 (  5589 PWs)   bands (ev):

   -33.3853 -33.3541 -33.3101 -33.3045 -33.2024 -33.1712 -33.1502 -33.1380
   -18.0707 -18.0703 -18.0248 -18.0225  -6.6902  -6.6811  -6.6117  -6.5431
    -6.5414  -6.4847  -6.4650  -6.4133  -6.3597  -6.3461  -6.3070  -6.2186
    -6.1732  -6.0639  -6.0353  -6.0086  -5.9534  -5.9424  -5.9095  -5.8586
    -5.8280  -5.7595  -5.6841  -5.6413   3.2830   3.2978   3.3043   3.3157
     3.3752   3.3776   3.4533   3.4755   3.4968   3.5328   3.6355   3.6625
    22.0244  22.2133  22.2270  22.4755  22.4895  22.7441  23.0489  23.1152
    23.2580  23.4384  23.5310  23.7776  23.7987  23.9055  24.1224  24.2404
    24.3008  24.4402  24.6216  24.7451  24.9592  25.4327  25.4413  25.6093
    25.7125  25.9937  26.0019  26.2583  26.5203  26.5687  26.7114  26.9599
    27.0304  27.3297  27.3331  27.5031  27.8285  28.2719  28.3251  28.5110
    28.8285  28.9623  29.0902  29.5062  29.5429  29.8652  30.4097  30.6327
    30.7076  30.9025  31.0099  31.3705  31.4840  31.7573  31.9833  32.1149
    32.4031  32.4258  32.4916  32.6821  33.0957  33.1071  33.8557  34.2563
    34.7781  35.2269  37.8362

          k = 0.0000 0.2226-0.2284 (  5568 PWs)   bands (ev):

   -33.3707 -33.3707 -33.3079 -33.3079 -33.1842 -33.1842 -33.1434 -33.1434
   -18.0674 -18.0674 -18.0266 -18.0266  -6.6747  -6.6747  -6.6193  -6.6193
    -6.5091  -6.5091  -6.4058  -6.4058  -6.3779  -6.3779  -6.2466  -6.2466
    -6.0963  -6.0963  -6.0253  -6.0253  -5.9564  -5.9564  -5.8893  -5.8893
    -5.7662  -5.7662  -5.6623  -5.6623   3.2938   3.2938   3.3389   3.3389
     3.3487   3.3487   3.4560   3.4560   3.5064   3.5064   3.6574   3.6574
    21.9752  21.9752  22.2796  22.2796  22.8397  22.8397  23.2384  23.2384
    23.4629  23.4629  23.7314  23.7314  23.9715  23.9715  23.9869  23.9869
    24.4764  24.4764  24.8236  24.8236  24.9167  24.9167  25.5196  25.5196
    25.5855  25.5855  26.2107  26.2107  26.6672  26.6672  26.7231  26.7231
    27.1772  27.1772  27.4928  27.4928  27.7260  27.7260  28.2344  28.2344
    28.8122  28.8122  29.2246  29.2246  29.7430  29.7430  30.5808  30.5808
    30.9566  30.9566  31.3104  31.3104  31.4913  31.4913  31.9107  31.9107
    32.4667  32.4667  32.9145  32.9145  32.9930  32.9930  33.7987  33.7987
    36.3086  36.3087  37.3350

          k =-0.4321 0.0000 0.0000 (  5596 PWs)   bands (ev):

   -33.3329 -33.3329 -33.3141 -33.3141 -33.2375 -33.2375 -33.1201 -33.1201
   -18.0749 -18.0749 -18.0459 -18.0459  -6.9332  -6.9332  -6.6460  -6.6460
    -6.6458  -6.6458  -6.5510  -6.5510  -6.4064  -6.4064  -6.1830  -6.1830
    -6.0736  -6.0736  -6.0564  -6.0564  -5.8493  -5.8493  -5.7962  -5.7962
    -5.7359  -5.7359  -5.4712  -5.4712   3.2929   3.2929   3.4177   3.4177
     3.5281   3.5281   3.6026   3.6026   3.6140   3.6140   3.6324   3.6324
    21.9088  21.9088  22.4015  22.4015  22.8721  22.8721  23.2594  23.2594
    23.4353  23.4353  23.5628  23.5628  23.6742  23.6742  24.0232  24.0232
    24.3192  24.3192  24.5810  24.5810  24.7443  24.7443  24.8912  24.8912
    25.6403  25.6403  25.9322  25.9322  26.2439  26.2439  26.9424  26.9424
    27.0401  27.0401  27.7708  27.7708  27.9188  27.9188  28.8806  28.8806
    29.3198  29.3198  29.8648  29.8648  30.0752  30.0752  30.1795  30.1795
    30.3852  30.3852  31.2103  31.2103  31.2359  31.2359  32.6056  32.6056
    32.8592  32.8592  32.9619  32.9620  33.5757  33.5757  34.1099  34.1103
    34.1812  34.1813  34.5513

          k =-0.4321 0.0000 0.1142 (  5620 PWs)   bands (ev):

   -33.3324 -33.3324 -33.3158 -33.3158 -33.2379 -33.2379 -33.1207 -33.1207
   -18.0750 -18.0750 -18.0456 -18.0456  -6.9177  -6.9177  -6.7778  -6.7778
    -6.6199  -6.6199  -6.4869  -6.4869  -6.3454  -6.3454  -6.2121  -6.2121
    -6.1782  -6.1782  -5.9936  -5.9936  -5.8533  -5.8533  -5.7846  -5.7846
    -5.7365  -5.7365  -5.4700  -5.4700   3.2827   3.2827   3.4350   3.4350
     3.5287   3.5287   3.5848   3.5848   3.6104   3.6104   3.6310   3.6310
    22.0795  22.0795  22.1977  22.1977  23.0006  23.0006  23.1571  23.1571
    23.4302  23.4302  23.5974  23.5974  23.7271  23.7271  24.1964  24.1964
    24.3401  24.3401  24.6476  24.6476  24.8098  24.8098  25.0414  25.0414
    25.4486  25.4486  25.7049  25.7049  26.5131  26.5131  26.6316  26.6316
    27.0400  27.0400  27.3029  27.3029  28.0045  28.0045  28.5270  28.5270
    29.2355  29.2355  29.7762  29.7762  30.3365  30.3365  30.4456  30.4456
    30.4879  30.4879  31.2004  31.2004  31.4143  31.4143  32.3550  32.3550
    33.0851  33.0852  33.2312  33.2313  33.3752  33.3752  33.8378  33.8380
    34.1228  34.1229  35.3470

          k =-0.4321 0.0000-0.2284 (  5632 PWs)   bands (ev):

   -33.3314 -33.3314 -33.3176 -33.3176 -33.2382 -33.2382 -33.1206 -33.1206
   -18.0752 -18.0752 -18.0454 -18.0454  -6.8988  -6.8988  -6.8204  -6.8204
    -6.6624  -6.6624  -6.3979  -6.3979  -6.3358  -6.3358  -6.2540  -6.2540
    -6.1933  -6.1933  -5.9964  -5.9964  -5.8450  -5.8450  -5.7706  -5.7706
    -5.7368  -5.7368  -5.4801  -5.4801   3.2761   3.2761   3.4575   3.4575
     3.5450   3.5450   3.5469   3.5469   3.6084   3.6084   3.6278   3.6278
    22.0228  22.0228  22.5016  22.5016  22.6867  22.6867  23.0919  23.0919
    23.3902  23.3902  23.8205  23.8205  23.9045  23.9045  24.3349  24.3349
    24.4879  24.4879  24.6645  24.6645  24.7763  24.7763  24.8589  24.8589
    25.5363  25.5363  25.8919  25.8919  26.0317  26.0317  26.3715  26.3715
    26.7946  26.7946  27.7871  27.7871  27.8096  27.8096  28.4676  28.4676
    29.1301  29.1301  29.1981  29.1981  30.2893  30.2893  30.6440  30.6440
    30.7442  30.7442  31.6380  31.6380  31.6548  31.6548  31.8970  31.8970
    33.0099  33.0100  33.4089  33.4091  33.5840  33.5841  33.8953  33.8954
    34.3770  34.3771  35.5790

          k =-0.4321 0.2226 0.0000 (  5608 PWs)   bands (ev):

   -33.3252 -33.3252 -33.3168 -33.3168 -33.2115 -33.2115 -33.1520 -33.1520
   -18.0733 -18.0733 -18.0588 -18.0588  -6.7517  -6.7517  -6.6250  -6.6250
    -6.6172  -6.6172  -6.4334  -6.4334  -6.3254  -6.3254  -6.2391  -6.2391
    -6.1722  -6.1722  -6.0559  -6.0559  -5.8462  -5.8462  -5.8252  -5.8252
    -5.7470  -5.7470  -5.6664  -5.6664   3.2949   3.2949   3.3412   3.3412
     3.4983   3.4983   3.5151   3.5151   3.5781   3.5781   3.6064   3.6064
    22.4809  22.4809  22.8935  22.8935  23.1719  23.1719  23.4129  23.4129
    23.5384  23.5384  23.6173  23.6173  24.2932  24.2932  24.4709  24.4709
    24.6750  24.6750  24.9285  24.9285  24.9637  24.9637  25.1258  25.1258
    25.2906  25.2906  25.3985  25.3985  26.2182  26.2182  26.6257  26.6257
    26.9096  26.9096  27.4677  27.4677  27.6360  27.6360  28.1789  28.1789
    28.8864  28.8864  29.2618  29.2618  29.9952  29.9952  30.0934  30.0934
    30.7293  30.7293  30.8946  30.8946  31.3055  31.3055  31.7352  31.7352
    32.3440  32.3440  32.3803  32.3803  32.6642  32.6642  33.4077  33.4077
    35.2966  35.2967  35.5393

          k =-0.4321 0.2226 0.1142 (  5598 PWs)   bands (ev):

   -33.3245 -33.3245 -33.3172 -33.3172 -33.2110 -33.2110 -33.1519 -33.1519
   -18.0733 -18.0733 -18.0586 -18.0586  -6.7678  -6.7678  -6.6456  -6.6456
    -6.5643  -6.5643  -6.4913  -6.4913  -6.3374  -6.3374  -6.2543  -6.2543
    -6.1213  -6.1213  -5.9965  -5.9965  -5.8568  -5.8568  -5.8431  -5.8431
    -5.7465  -5.7465  -5.6647  -5.6647   3.2891   3.2891   3.3565   3.3565
     3.4960   3.4960   3.5086   3.5086   3.5785   3.5785   3.6002   3.6002
    22.5665  22.5665  22.7211  22.7211  23.2447  23.2447  23.4363  23.4363
    23.6652  23.6652  23.8788  23.8788  24.1434  24.1434  24.4441  24.4441
    24.5373  24.5373  24.8681  24.8681  24.9888  24.9888  25.0454  25.0454
    25.4059  25.4059  25.6687  25.6687  26.3400  26.3400  26.4800  26.4800
    26.9317  26.9317  27.1760  27.1760  27.6374  27.6374  28.1371  28.1371
    28.6376  28.6376  29.0779  29.0779  29.9618  29.9618  30.1959  30.1959
    30.6654  30.6654  30.7752  30.7752  31.1350  31.1350  31.7106  31.7106
    32.2307  32.2307  32.6655  32.6655  32.8829  32.8829  33.8295  33.8296
    35.1025  35.1028  35.8935

          k =-0.4321 0.2226-0.2284 (  5584 PWs)   bands (ev):

   -33.3234 -33.3234 -33.3178 -33.3178 -33.2106 -33.2106 -33.1518 -33.1518
   -18.0733 -18.0733 -18.0584 -18.0584  -6.7903  -6.7903  -6.5899  -6.5899
    -6.5732  -6.5732  -6.5352  -6.5352  -6.3804  -6.3804  -6.2235  -6.2235
    -6.0844  -6.0844  -5.9252  -5.9252  -5.8909  -5.8909  -5.8674  -5.8674
    -5.7424  -5.7424  -5.6660  -5.6660   3.2853   3.2853   3.3714   3.3714
     3.4958   3.4958   3.4983   3.4983   3.5786   3.5786   3.5938   3.5938
    22.4480  22.4480  23.0417  23.0417  23.0661  23.0661  23.5815  23.5815
    23.6281  23.6281  24.0073  24.0073  24.1668  24.1668  24.4076  24.4076
    24.4868  24.4868  24.7968  24.7968  24.9036  24.9036  25.2233  25.2233
    25.4046  25.4046  25.9838  25.9838  26.1202  26.1202  26.3932  26.3932
    26.5928  26.5928  27.5328  27.5328  27.6108  27.6108  28.1875  28.1875
    28.5448  28.5448  28.6079  28.6079  29.8293  29.8293  30.1182  30.1182
    30.5470  30.5470  30.7501  30.7501  31.1854  31.1854  31.4861  31.4861
    32.3345  32.3345  32.7973  32.7973  33.6757  33.6757  33.7517  33.7518
    35.1733  35.1741  35.6510

     the Fermi energy is    30.4992 ev

!    total energy              =   -1841.73059187 Ry
     Harris-Foulkes estimate   =   -1841.73065416 Ry
     estimated scf accuracy    <       0.00006982 Ry

     The total energy is the sum of the following terms:

     one-electron contribution =      64.62808072 Ry
     hartree contribution      =     158.52330402 Ry
     xc contribution           =    -202.14146640 Ry
     ewald contribution        =   -1862.12548855 Ry
     smearing contrib. (-TS)   =      -0.61502166 Ry

     convergence has been achieved in  11 iterations

     Forces acting on atoms (Ry/au):

     atom    1 type  1   force =     0.00000000   -0.03145526   -0.02053117
     atom    2 type  1   force =     0.00000000    0.03145526    0.02053117
     atom    3 type  1   force =     0.00000000   -0.03145526    0.02053117
     atom    4 type  1   force =     0.00000000    0.03145526   -0.02053117
     atom    5 type  1   force =     0.00000000    0.06525613   -0.04219261
     atom    6 type  1   force =     0.00000000   -0.06525613    0.04219261
     atom    7 type  1   force =     0.00000000    0.06525613    0.04219261
     atom    8 type  1   force =     0.00000000   -0.06525613   -0.04219261
     atom    9 type  2   force =     0.00000000   -0.04299888   -0.01839986
     atom   10 type  2   force =     0.00000000    0.04299888    0.01839986
     atom   11 type  2   force =     0.00000000   -0.04299888    0.01839986
     atom   12 type  2   force =     0.00000000    0.04299888   -0.01839986

     Total force =     0.196336     Total SCF correction =     0.000000


     entering subroutine stress ...

          total   stress  (Ry/bohr**3)                   (kbar)     P=  776.19
   0.00547818   0.00000000   0.00000000        805.87      0.00      0.00
   0.00000000   0.00495015   0.00000000          0.00    728.19      0.00
   0.00000000   0.00000000   0.00540099          0.00      0.00    794.51


     Writing output data file Prototype-La-oP12-Co2Si.save
 
     init_run     :      3.77s CPU      4.56s WALL (       2 calls)
     electrons    :    717.82s CPU    820.98s WALL (       5 calls)
     update_pot   :      1.90s CPU      1.92s WALL (       3 calls)
     forces       :      4.09s CPU      4.24s WALL (       5 calls)
     stress       :      9.98s CPU     10.17s WALL (       5 calls)

     Called by init_run:
     wfcinit      :      2.88s CPU      3.64s WALL (       2 calls)
     potinit      :      0.42s CPU      0.42s WALL (       2 calls)

     Called by electrons:
     c_bands      :    697.84s CPU    780.06s WALL (      53 calls)
     sum_band     :     19.54s CPU     25.88s WALL (      53 calls)
     v_of_rho     :      0.09s CPU      0.10s WALL (      58 calls)
     mix_rho      :      0.10s CPU      0.11s WALL (      53 calls)

     Called by c_bands:
     init_us_2    :      1.27s CPU      1.54s WALL (    1416 calls)
     ccgdiagg     :    622.84s CPU    687.47s WALL (     739 calls)
     wfcrot       :     76.61s CPU     94.09s WALL (     751 calls)

     Called by *cgdiagg:
     h_psi        :    452.83s CPU    521.12s WALL (  405884 calls)
     cdiaghg      :      4.47s CPU      4.85s WALL (     751 calls)

     Called by h_psi:
     add_vuspsi   :     77.84s CPU     86.28s WALL (  405884 calls)

     General routines
     calbec       :    180.10s CPU    183.85s WALL (  811137 calls)
     fft          :      0.10s CPU      0.12s WALL (     255 calls)
     fftw         :    279.17s CPU    322.07s WALL ( 1056136 calls)
     davcio       :      0.70s CPU      1.69s WALL (    2052 calls)
 
     Parallel routines
     fft_scatter  :    116.16s CPU    133.39s WALL ( 1056391 calls)
 
     PWSCF        : 12m17.92s CPU    14m 4.09s WALL

 
   This run was terminated on:  21:29:10  22Mar2018            

=------------------------------------------------------------------------------=
   JOB DONE.
=------------------------------------------------------------------------------=
