
     Program PWSCF v.5.0.2 starts on 22Mar2018 at 21:13:35 

     This program is part of the open-source Quantum ESPRESSO suite
     for quantum simulation of materials; please cite
         "P. Giannozzi et al., J. Phys.:Condens. Matter 21 395502 (2009);
          URL http://www.quantum-espresso.org", 
     in publications or presentations arising from this work. More details at
     http://www.quantum-espresso.org/quote.php

     Parallel version (MPI), running on     4 processors
     R & G space division:  proc/nbgrp/npool/nimage =       4

     Current dimensions of program PWSCF are:
     Max number of different atomic species (ntypx) = 10
     Max number of k-points (npk) =  40000
     Max angular momentum in pseudopotentials (lmaxx) =  3
     Waiting for input...
     Reading input from standard input

     Subspace diagonalization in iterative solution of the eigenvalue problem:
     a serial algorithm will be used

 
     Parallelization info
     --------------------
     sticks:   dense  smooth     PW     G-vecs:    dense   smooth      PW
     Min         164     164     48                 3132     3132     524
     Max         165     165     49                 3135     3135     527
     Sum         657     657    193                12533    12533    2103
 


     bravais-lattice index     =            0
     lattice parameter (alat)  =       7.1317  a.u.
     unit-cell volume          =     362.7211 (a.u.)^3
     number of atoms/cell      =            4
     number of atomic types    =            2
     number of electrons       =        65.00
     number of Kohn-Sham states=           40
     kinetic-energy cutoff     =      40.0000  Ry
     charge density cutoff     =     160.0000  Ry
     convergence threshold     =      1.0E-04
     mixing beta               =       0.7000
     number of iterations used =            8  plain     mixing
     Exchange-correlation      = SLA-PZ-NOGX-NOGC ( 1 1 0 0 0)
     EXX-fraction              =        0.00
     nstep                     =           50


     celldm(1)=   7.131665  celldm(2)=   0.000000  celldm(3)=   0.000000
     celldm(4)=   0.000000  celldm(5)=   0.000000  celldm(6)=   0.000000

     crystal axes: (cart. coord. in units of alat)
               a(1) = (   1.000000   0.000000   0.000000 )  
               a(2) = (   0.000000   1.000000   0.000000 )  
               a(3) = (   0.000000   0.000000   1.000000 )  

     reciprocal axes: (cart. coord. in units 2 pi/alat)
               b(1) = (  1.000000  0.000000  0.000000 )  
               b(2) = (  0.000000  1.000000  0.000000 )  
               b(3) = (  0.000000  0.000000  1.000000 )  


     PseudoPot. # 1 for Eu read from file:
     /home/cwx6513/pp.La/Eu.UPF
     MD5 check sum: 5efdbbfc50c6a10138933a6429836ad2
     Pseudo is Norm-conserving, Zval = 17.0
     Generated in analytical, separable form
     Using radial grid of 1261 points,  6 beta functions with: 
                l(1) =   0
                l(2) =   0
                l(3) =   1
                l(4) =   1
                l(5) =   2
                l(6) =   3

     PseudoPot. # 2 for Nd read from file:
     /home/cwx6513/pp.La/Nd.UPF
     MD5 check sum: c66c5b6abe7b5840ced9b1e244e3bed6
     Pseudo is Norm-conserving, Zval = 14.0
     Generated in analytical, separable form
     Using radial grid of 1257 points,  6 beta functions with: 
                l(1) =   0
                l(2) =   0
                l(3) =   1
                l(4) =   1
                l(5) =   2
                l(6) =   3

     atomic species   valence    mass     pseudopotential
        Cu            17.00    63.54600     Eu( 1.00)
        Au            14.00   196.96600     Nd( 1.00)

     48 Sym. Ops., with inversion, found



   Cartesian axes

     site n.     atom                  positions (alat units)
         1           Cu  tau(   1) = (   0.0000000   0.5000000   0.5000000  )
         2           Cu  tau(   2) = (   0.5000000   0.5000000   0.0000000  )
         3           Cu  tau(   3) = (   0.5000000   0.0000000   0.5000000  )
         4           Au  tau(   4) = (   0.0000000   0.0000000   0.0000000  )

     number of k points=   100  gaussian smearing, width (Ry)=  0.1000

     Number of k-points >= 100: set verbosity='high' to print them.

     Dense  grid:    12533 G-vectors     FFT dimensions: (  30,  30,  30)

     Largest allocated arrays     est. size (Mb)     dimensions
        Kohn-Sham Wavefunctions         0.24 Mb     (    400,   40)
        NL pseudopotentials             0.49 Mb     (    400,   80)
        Each V/rho on FFT grid          0.11 Mb     (   7200)
        Each G-vector array             0.02 Mb     (   3134)
        G-vector shells                 0.02 Mb     (   3134)
     Largest temporary arrays     est. size (Mb)     dimensions
        Each subspace H/S matrix        0.02 Mb     (  40,  40)
        Each <psi_i|beta_j> matrix      0.05 Mb     (     80,   40)
        Arrays for rho mixing           0.88 Mb     (   7200,   8)

     Initial potential from superposition of free atoms

     Starting from uniform charge
     Starting wfc are    0 randomized atomic wfcs

     total cpu time spent up to now is        2.3 secs

     Self-consistent Calculation

     iteration #  1     ecut=    40.00 Ry     beta=0.70
     CG style diagonalization
     c_bands:  1 eigenvalues not converged
     c_bands:  1 eigenvalues not converged
     c_bands:  1 eigenvalues not converged
     c_bands:  1 eigenvalues not converged
     c_bands:  1 eigenvalues not converged
     c_bands:  1 eigenvalues not converged
     c_bands:  1 eigenvalues not converged
     c_bands:  2 eigenvalues not converged
     c_bands:  1 eigenvalues not converged
     c_bands:  1 eigenvalues not converged
     c_bands:  1 eigenvalues not converged
     c_bands:  1 eigenvalues not converged
     c_bands:  2 eigenvalues not converged
     c_bands:  1 eigenvalues not converged
     c_bands:  1 eigenvalues not converged
     c_bands:  1 eigenvalues not converged
     c_bands:  1 eigenvalues not converged
     c_bands:  2 eigenvalues not converged
     c_bands:  2 eigenvalues not converged
     c_bands:  1 eigenvalues not converged
     c_bands:  1 eigenvalues not converged
     c_bands:  2 eigenvalues not converged
     c_bands:  2 eigenvalues not converged
     c_bands:  1 eigenvalues not converged
     c_bands:  1 eigenvalues not converged
     c_bands:  1 eigenvalues not converged
     c_bands:  1 eigenvalues not converged
     ethr =  1.00E-02,  avg # of iterations = 10.6

     total cpu time spent up to now is       18.3 secs

     total energy              =    -589.62591145 Ry
     Harris-Foulkes estimate   =    -701.50143449 Ry
     estimated scf accuracy    <     148.92732399 Ry

     iteration #  2     ecut=    40.00 Ry     beta=0.70
     CG style diagonalization
     c_bands:  1 eigenvalues not converged
     c_bands:  1 eigenvalues not converged
     ethr =  1.00E-02,  avg # of iterations =  9.2

     total cpu time spent up to now is       31.5 secs

     total energy              =    -596.02238090 Ry
     Harris-Foulkes estimate   =    -656.06688905 Ry
     estimated scf accuracy    <     102.07460024 Ry

     iteration #  3     ecut=    40.00 Ry     beta=0.70
     CG style diagonalization
     c_bands:  1 eigenvalues not converged
     c_bands:  1 eigenvalues not converged
     ethr =  1.00E-02,  avg # of iterations =  7.6

     total cpu time spent up to now is       42.5 secs

     total energy              =    -632.90856122 Ry
     Harris-Foulkes estimate   =    -643.68692451 Ry
     estimated scf accuracy    <      25.13383248 Ry

     iteration #  4     ecut=    40.00 Ry     beta=0.70
     CG style diagonalization
     ethr =  1.00E-02,  avg # of iterations =  3.8

     total cpu time spent up to now is       47.7 secs

     total energy              =    -634.30857963 Ry
     Harris-Foulkes estimate   =    -635.39646238 Ry
     estimated scf accuracy    <       3.36827855 Ry

     iteration #  5     ecut=    40.00 Ry     beta=0.70
     CG style diagonalization
     ethr =  5.18E-03,  avg # of iterations =  3.3

     total cpu time spent up to now is       52.3 secs

     total energy              =    -634.58417581 Ry
     Harris-Foulkes estimate   =    -634.75988137 Ry
     estimated scf accuracy    <       0.32638620 Ry

     iteration #  6     ecut=    40.00 Ry     beta=0.70
     CG style diagonalization
     c_bands:  1 eigenvalues not converged
     c_bands:  1 eigenvalues not converged
     c_bands:  1 eigenvalues not converged
     c_bands:  1 eigenvalues not converged
     c_bands:  1 eigenvalues not converged
     c_bands:  2 eigenvalues not converged
     c_bands:  1 eigenvalues not converged
     c_bands:  1 eigenvalues not converged
     ethr =  5.02E-04,  avg # of iterations =  5.0

     total cpu time spent up to now is       59.8 secs

     total energy              =    -634.74794830 Ry
     Harris-Foulkes estimate   =    -634.81401799 Ry
     estimated scf accuracy    <       0.16083431 Ry

     iteration #  7     ecut=    40.00 Ry     beta=0.70
     CG style diagonalization
     c_bands:  1 eigenvalues not converged
     ethr =  2.47E-04,  avg # of iterations =  3.4

     total cpu time spent up to now is       64.8 secs

     total energy              =    -634.77959920 Ry
     Harris-Foulkes estimate   =    -634.77984218 Ry
     estimated scf accuracy    <       0.00039745 Ry

     iteration #  8     ecut=    40.00 Ry     beta=0.70
     CG style diagonalization
     c_bands:  2 eigenvalues not converged
     c_bands:  1 eigenvalues not converged
     c_bands:  2 eigenvalues not converged
     c_bands:  1 eigenvalues not converged
     c_bands:  2 eigenvalues not converged
     c_bands:  1 eigenvalues not converged
     c_bands:  2 eigenvalues not converged
     c_bands:  1 eigenvalues not converged
     c_bands:  1 eigenvalues not converged
     c_bands:  1 eigenvalues not converged
     c_bands:  2 eigenvalues not converged
     c_bands:  1 eigenvalues not converged
     c_bands:  1 eigenvalues not converged
     c_bands:  1 eigenvalues not converged
     c_bands:  1 eigenvalues not converged
     c_bands:  2 eigenvalues not converged
     c_bands:  1 eigenvalues not converged
     c_bands:  1 eigenvalues not converged
     c_bands:  1 eigenvalues not converged
     c_bands:  1 eigenvalues not converged
     c_bands:  1 eigenvalues not converged
     c_bands:  1 eigenvalues not converged
     c_bands:  1 eigenvalues not converged
     c_bands:  1 eigenvalues not converged
     c_bands:  1 eigenvalues not converged
     c_bands:  1 eigenvalues not converged
     c_bands:  1 eigenvalues not converged
     c_bands:  1 eigenvalues not converged
     c_bands:  1 eigenvalues not converged
     c_bands:  1 eigenvalues not converged
     ethr =  6.11E-07,  avg # of iterations =  6.7

     total cpu time spent up to now is       74.2 secs

     End of self-consistent calculation

     Number of k-points >= 100: set verbosity='high' to print the bands.

     the Fermi energy is    37.6112 ev

!    total energy              =    -634.78155069 Ry
     Harris-Foulkes estimate   =    -634.78159343 Ry
     estimated scf accuracy    <       0.00005672 Ry

     The total energy is the sum of the following terms:

     one-electron contribution =      73.49218459 Ry
     hartree contribution      =      43.53573175 Ry
     xc contribution           =     -70.47635223 Ry
     ewald contribution        =    -681.18460397 Ry
     smearing contrib. (-TS)   =      -0.14851083 Ry

     convergence has been achieved in   8 iterations

     Forces acting on atoms (Ry/au):

     atom    1 type  1   force =     0.00000000    0.00000000    0.00000000
     atom    2 type  1   force =     0.00000000    0.00000000    0.00000000
     atom    3 type  1   force =     0.00000000    0.00000000    0.00000000
     atom    4 type  2   force =     0.00000000    0.00000000    0.00000000

     Total force =     0.000000     Total SCF correction =     0.000000


     entering subroutine stress ...

          total   stress  (Ry/bohr**3)                   (kbar)     P= 2199.07
   0.01494896   0.00000000   0.00000000       2199.07      0.00      0.00
   0.00000000   0.01494896   0.00000000          0.00   2199.07      0.00
   0.00000000   0.00000000   0.01494896          0.00      0.00   2199.07


     BFGS Geometry Optimization

     number of scf cycles    =   1
     number of bfgs steps    =   0

     enthalpy new            =    -634.7815506908 Ry

     new trust radius        =       0.5000000000 bohr
     new conv_thr            =       0.0001000000 Ry

     new unit-cell volume =    525.13076 a.u.^3 (    77.81635 Ang^3 )

CELL_PARAMETERS (alat=  7.13166486)
   1.131266415   0.000000000   0.000000000
   0.000000000   1.131266415   0.000000000
   0.000000000   0.000000000   1.131266415

ATOMIC_POSITIONS (crystal)
Cu       0.000000000   0.500000000   0.500000000
Cu       0.500000000   0.500000000   0.000000000
Cu       0.500000000   0.000000000   0.500000000
Au       0.000000000   0.000000000   0.000000000



     Writing output data file Prototype-La-cP4-Cu3Au.save
     NEW-OLD atomic charge density approx. for the potential
     NEW k-points: (use verbosity='high' to print them)

     total cpu time spent up to now is       76.1 secs

     Self-consistent Calculation

     iteration #  1     ecut=    40.00 Ry     beta=0.70
     CG style diagonalization
     c_bands:  3 eigenvalues not converged
     c_bands:  2 eigenvalues not converged
     c_bands:  4 eigenvalues not converged
     c_bands:  4 eigenvalues not converged
     c_bands:  5 eigenvalues not converged
     c_bands:  4 eigenvalues not converged
     c_bands:  5 eigenvalues not converged
     c_bands:  3 eigenvalues not converged
     ethr =  1.00E-06,  avg # of iterations = 19.9

     total cpu time spent up to now is      104.1 secs

     total energy              =    -623.25018312 Ry
     Harris-Foulkes estimate   =    -644.52666511 Ry
     estimated scf accuracy    <      27.17694404 Ry

     iteration #  2     ecut=    40.00 Ry     beta=0.70
     CG style diagonalization
     ethr =  1.00E-02,  avg # of iterations =  4.8

     total cpu time spent up to now is      111.5 secs

     total energy              =    -625.25843481 Ry
     Harris-Foulkes estimate   =    -647.12980386 Ry
     estimated scf accuracy    <      46.82267596 Ry

     iteration #  3     ecut=    40.00 Ry     beta=0.70
     CG style diagonalization
     ethr =  1.00E-02,  avg # of iterations =  4.6

     total cpu time spent up to now is      118.5 secs

     total energy              =    -634.42094144 Ry
     Harris-Foulkes estimate   =    -636.26111889 Ry
     estimated scf accuracy    <       4.17862995 Ry

     iteration #  4     ecut=    40.00 Ry     beta=0.70
     CG style diagonalization
     ethr =  6.43E-03,  avg # of iterations =  3.2

     total cpu time spent up to now is      123.5 secs

     total energy              =    -635.10115124 Ry
     Harris-Foulkes estimate   =    -635.14467417 Ry
     estimated scf accuracy    <       0.09121339 Ry

     iteration #  5     ecut=    40.00 Ry     beta=0.70
     CG style diagonalization
     ethr =  1.40E-04,  avg # of iterations =  4.5

     total cpu time spent up to now is      130.0 secs

     total energy              =    -635.15079461 Ry
     Harris-Foulkes estimate   =    -635.17567113 Ry
     estimated scf accuracy    <       0.06532583 Ry

     iteration #  6     ecut=    40.00 Ry     beta=0.70
     CG style diagonalization
     ethr =  1.01E-04,  avg # of iterations =  3.2

     total cpu time spent up to now is      134.4 secs

     total energy              =    -635.16454862 Ry
     Harris-Foulkes estimate   =    -635.16738773 Ry
     estimated scf accuracy    <       0.01092858 Ry

     iteration #  7     ecut=    40.00 Ry     beta=0.70
     CG style diagonalization
     c_bands:  1 eigenvalues not converged
     ethr =  1.68E-05,  avg # of iterations =  3.1

     total cpu time spent up to now is      138.7 secs

     total energy              =    -635.16571233 Ry
     Harris-Foulkes estimate   =    -635.16587661 Ry
     estimated scf accuracy    <       0.00032782 Ry

     iteration #  8     ecut=    40.00 Ry     beta=0.70
     CG style diagonalization
     ethr =  5.04E-07,  avg # of iterations =  4.3

     total cpu time spent up to now is      144.7 secs

     End of self-consistent calculation

     Number of k-points >= 100: set verbosity='high' to print the bands.

     the Fermi energy is    24.2497 ev

!    total energy              =    -635.16582682 Ry
     Harris-Foulkes estimate   =    -635.16588819 Ry
     estimated scf accuracy    <       0.00006836 Ry

     The total energy is the sum of the following terms:

     one-electron contribution =     -32.57759740 Ry
     hartree contribution      =      67.36125678 Ry
     xc contribution           =     -67.56810677 Ry
     ewald contribution        =    -602.14340063 Ry
     smearing contrib. (-TS)   =      -0.23797881 Ry

     convergence has been achieved in   8 iterations

     Forces acting on atoms (Ry/au):

     atom    1 type  1   force =     0.00000000    0.00000000    0.00000000
     atom    2 type  1   force =     0.00000000    0.00000000    0.00000000
     atom    3 type  1   force =     0.00000000    0.00000000    0.00000000
     atom    4 type  2   force =     0.00000000    0.00000000    0.00000000

     Total force =     0.000000     Total SCF correction =     0.000000


     entering subroutine stress ...

          total   stress  (Ry/bohr**3)                   (kbar)     P= -750.48
  -0.00510168   0.00000000   0.00000000       -750.48      0.00      0.00
   0.00000000  -0.00510168   0.00000000          0.00   -750.48      0.00
   0.00000000   0.00000000  -0.00510168          0.00      0.00   -750.48


     number of scf cycles    =   2
     number of bfgs steps    =   1

     enthalpy old            =    -634.7815506908 Ry
     enthalpy new            =    -635.1658268204 Ry

     CASE: enthalpy_new < enthalpy_old

     small trust_radius: resetting bfgs history

     new trust radius        =       0.5845436390 bohr
     new conv_thr            =       0.0000010000 Ry

     new unit-cell volume =    348.73943 a.u.^3 (    51.67785 Ang^3 )

CELL_PARAMETERS (alat=  7.13166486)
   0.986982436   0.000000000   0.000000000
   0.000000000   0.986982436   0.000000000
   0.000000000   0.000000000   0.986982436

ATOMIC_POSITIONS (crystal)
Cu       0.000000000   0.500000000   0.500000000
Cu       0.500000000   0.500000000   0.000000000
Cu       0.500000000   0.000000000   0.500000000
Au       0.000000000   0.000000000   0.000000000



     Writing output data file Prototype-La-cP4-Cu3Au.save
     NEW-OLD atomic charge density approx. for the potential
     NEW k-points: (use verbosity='high' to print them)

     total cpu time spent up to now is      147.1 secs

     Self-consistent Calculation

     iteration #  1     ecut=    40.00 Ry     beta=0.70
     CG style diagonalization
     c_bands:  1 eigenvalues not converged
     c_bands:  2 eigenvalues not converged
     c_bands:  2 eigenvalues not converged
     c_bands:  2 eigenvalues not converged
     c_bands:  1 eigenvalues not converged
     c_bands:  5 eigenvalues not converged
     c_bands:  3 eigenvalues not converged
     c_bands:  1 eigenvalues not converged
     c_bands:  3 eigenvalues not converged
     c_bands:  1 eigenvalues not converged
     c_bands:  5 eigenvalues not converged
     c_bands:  1 eigenvalues not converged
     c_bands:  4 eigenvalues not converged
     c_bands:  4 eigenvalues not converged
     c_bands:  3 eigenvalues not converged
     c_bands:  2 eigenvalues not converged
     c_bands:  1 eigenvalues not converged
     c_bands:  1 eigenvalues not converged
     c_bands:  1 eigenvalues not converged
     c_bands:  1 eigenvalues not converged
     c_bands:  1 eigenvalues not converged
     c_bands:  2 eigenvalues not converged
     c_bands:  1 eigenvalues not converged
     c_bands:  1 eigenvalues not converged
     c_bands:  1 eigenvalues not converged
     c_bands:  1 eigenvalues not converged
     c_bands:  1 eigenvalues not converged
     c_bands:  2 eigenvalues not converged
     c_bands:  3 eigenvalues not converged
     c_bands:  1 eigenvalues not converged
     c_bands:  1 eigenvalues not converged
     c_bands:  1 eigenvalues not converged
     c_bands:  2 eigenvalues not converged
     c_bands:  2 eigenvalues not converged
     c_bands:  1 eigenvalues not converged
     c_bands:  1 eigenvalues not converged
     c_bands:  1 eigenvalues not converged
     c_bands:  1 eigenvalues not converged
     c_bands:  2 eigenvalues not converged
     c_bands:  1 eigenvalues not converged
     c_bands:  1 eigenvalues not converged
     c_bands:  2 eigenvalues not converged
     c_bands:  2 eigenvalues not converged
     c_bands:  1 eigenvalues not converged
     c_bands:  1 eigenvalues not converged
     c_bands:  1 eigenvalues not converged
     c_bands:  2 eigenvalues not converged
     c_bands:  5 eigenvalues not converged
     c_bands:  1 eigenvalues not converged
     c_bands:  2 eigenvalues not converged
     c_bands:  3 eigenvalues not converged
     c_bands:  5 eigenvalues not converged
     c_bands:  3 eigenvalues not converged
     ethr =  1.00E-06,  avg # of iterations = 21.4

     total cpu time spent up to now is      177.0 secs

     total energy              =    -629.02486835 Ry
     Harris-Foulkes estimate   =    -644.45013964 Ry
     estimated scf accuracy    <      19.93106917 Ry

     iteration #  2     ecut=    40.00 Ry     beta=0.70
     CG style diagonalization
     ethr =  1.00E-02,  avg # of iterations =  4.3

     total cpu time spent up to now is      182.9 secs

     total energy              =    -631.84166343 Ry
     Harris-Foulkes estimate   =    -636.73020466 Ry
     estimated scf accuracy    <       7.67142672 Ry

     iteration #  3     ecut=    40.00 Ry     beta=0.70
     CG style diagonalization
     ethr =  1.00E-02,  avg # of iterations =  3.6

     total cpu time spent up to now is      188.0 secs

     total energy              =    -633.96270303 Ry
     Harris-Foulkes estimate   =    -635.38817296 Ry
     estimated scf accuracy    <       3.20293937 Ry

     iteration #  4     ecut=    40.00 Ry     beta=0.70
     CG style diagonalization
     ethr =  4.93E-03,  avg # of iterations =  3.3

     total cpu time spent up to now is      193.0 secs

     total energy              =    -634.52888857 Ry
     Harris-Foulkes estimate   =    -634.53774946 Ry
     estimated scf accuracy    <       0.01317452 Ry

     iteration #  5     ecut=    40.00 Ry     beta=0.70
     CG style diagonalization
     c_bands:  1 eigenvalues not converged
     c_bands:  1 eigenvalues not converged
     c_bands:  1 eigenvalues not converged
     c_bands:  1 eigenvalues not converged
     c_bands:  1 eigenvalues not converged
     c_bands:  2 eigenvalues not converged
     c_bands:  1 eigenvalues not converged
     c_bands:  1 eigenvalues not converged
     c_bands:  1 eigenvalues not converged
     c_bands:  1 eigenvalues not converged
     c_bands:  1 eigenvalues not converged
     c_bands:  2 eigenvalues not converged
     c_bands:  1 eigenvalues not converged
     c_bands:  1 eigenvalues not converged
     c_bands:  1 eigenvalues not converged
     c_bands:  2 eigenvalues not converged
     c_bands:  1 eigenvalues not converged
     c_bands:  1 eigenvalues not converged
     c_bands:  1 eigenvalues not converged
     c_bands:  1 eigenvalues not converged
     c_bands:  1 eigenvalues not converged
     c_bands:  1 eigenvalues not converged
     c_bands:  1 eigenvalues not converged
     c_bands:  1 eigenvalues not converged
     c_bands:  1 eigenvalues not converged
     c_bands:  4 eigenvalues not converged
     c_bands:  2 eigenvalues not converged
     ethr =  2.03E-05,  avg # of iterations =  5.5

     total cpu time spent up to now is      200.8 secs

     total energy              =    -634.54841596 Ry
     Harris-Foulkes estimate   =    -634.55075631 Ry
     estimated scf accuracy    <       0.00652963 Ry

     iteration #  6     ecut=    40.00 Ry     beta=0.70
     CG style diagonalization
     c_bands:  1 eigenvalues not converged
     c_bands:  1 eigenvalues not converged
     ethr =  1.00E-05,  avg # of iterations =  3.2

     total cpu time spent up to now is      205.3 secs

     total energy              =    -634.54885589 Ry
     Harris-Foulkes estimate   =    -634.54915968 Ry
     estimated scf accuracy    <       0.00056178 Ry

     iteration #  7     ecut=    40.00 Ry     beta=0.70
     CG style diagonalization
     c_bands:  1 eigenvalues not converged
     c_bands:  1 eigenvalues not converged
     ethr =  8.64E-07,  avg # of iterations =  4.4

     total cpu time spent up to now is      211.5 secs

     total energy              =    -634.54910852 Ry
     Harris-Foulkes estimate   =    -634.54917141 Ry
     estimated scf accuracy    <       0.00014790 Ry

     iteration #  8     ecut=    40.00 Ry     beta=0.70
     CG style diagonalization
     ethr =  2.28E-07,  avg # of iterations =  3.3

     total cpu time spent up to now is      216.1 secs

     End of self-consistent calculation

     Number of k-points >= 100: set verbosity='high' to print the bands.

     the Fermi energy is    39.3134 ev

!    total energy              =    -634.54913653 Ry
     Harris-Foulkes estimate   =    -634.54913702 Ry
     estimated scf accuracy    <       0.00000056 Ry

     The total energy is the sum of the following terms:

     one-electron contribution =      85.34732068 Ry
     hartree contribution      =      41.27250628 Ry
     xc contribution           =     -70.85723717 Ry
     ewald contribution        =    -690.16892241 Ry
     smearing contrib. (-TS)   =      -0.14280391 Ry

     convergence has been achieved in   8 iterations

     Forces acting on atoms (Ry/au):

     atom    1 type  1   force =     0.00000000    0.00000000    0.00000000
     atom    2 type  1   force =     0.00000000    0.00000000    0.00000000
     atom    3 type  1   force =     0.00000000    0.00000000    0.00000000
     atom    4 type  2   force =     0.00000000    0.00000000    0.00000000

     Total force =     0.000000     Total SCF correction =     0.000000


     entering subroutine stress ...

          total   stress  (Ry/bohr**3)                   (kbar)     P= 2720.79
   0.01849556   0.00000000   0.00000000       2720.79      0.00      0.00
   0.00000000   0.01849556   0.00000000          0.00   2720.79      0.00
   0.00000000   0.00000000   0.01849556          0.00      0.00   2720.79


     number of scf cycles    =   3
     number of bfgs steps    =   2

     enthalpy old            =    -635.1658268204 Ry
     enthalpy new            =    -634.5491365274 Ry

     CASE: enthalpy_new > enthalpy_old

     new trust radius        =       0.1704525836 bohr

     trust_radius < trust_radius_min

     resetting bfgs history

     Message from routine bfgs:
     history already reset at previous step: stopping
     new conv_thr            =       0.0000010000 Ry

     new unit-cell volume =    361.78299 a.u.^3 (    53.61071 Ang^3 )

CELL_PARAMETERS (alat=  7.13166486)
   0.999137182   0.000000000   0.000000000
   0.000000000   0.999137182   0.000000000
   0.000000000   0.000000000   0.999137182

ATOMIC_POSITIONS (crystal)
Cu       0.000000000   0.500000000   0.500000000
Cu       0.500000000   0.500000000   0.000000000
Cu       0.500000000   0.000000000   0.500000000
Au       0.000000000   0.000000000   0.000000000



     Writing output data file Prototype-La-cP4-Cu3Au.save
     NEW-OLD atomic charge density approx. for the potential
     NEW k-points: (use verbosity='high' to print them)

     total cpu time spent up to now is      218.0 secs

     Self-consistent Calculation

     iteration #  1     ecut=    40.00 Ry     beta=0.70
     CG style diagonalization
     c_bands:  1 eigenvalues not converged
     c_bands:  1 eigenvalues not converged
     c_bands:  1 eigenvalues not converged
     c_bands:  1 eigenvalues not converged
     c_bands:  1 eigenvalues not converged
     c_bands:  1 eigenvalues not converged
     c_bands:  1 eigenvalues not converged
     c_bands:  1 eigenvalues not converged
     c_bands:  1 eigenvalues not converged
     c_bands:  1 eigenvalues not converged
     c_bands:  1 eigenvalues not converged
     c_bands:  1 eigenvalues not converged
     c_bands:  2 eigenvalues not converged
     ethr =  1.00E-06,  avg # of iterations =  8.0

     total cpu time spent up to now is      229.6 secs

     total energy              =    -634.70134078 Ry
     Harris-Foulkes estimate   =    -634.84350631 Ry
     estimated scf accuracy    <       0.18405860 Ry

     iteration #  2     ecut=    40.00 Ry     beta=0.70
     CG style diagonalization
     ethr =  2.83E-04,  avg # of iterations =  3.8

     total cpu time spent up to now is      234.8 secs

     total energy              =    -634.69958786 Ry
     Harris-Foulkes estimate   =    -634.81915608 Ry
     estimated scf accuracy    <       0.23905797 Ry

     iteration #  3     ecut=    40.00 Ry     beta=0.70
     CG style diagonalization
     ethr =  2.83E-04,  avg # of iterations =  3.4

     total cpu time spent up to now is      239.5 secs

     total energy              =    -634.75986291 Ry
     Harris-Foulkes estimate   =    -634.77714711 Ry
     estimated scf accuracy    <       0.04461035 Ry

     iteration #  4     ecut=    40.00 Ry     beta=0.70
     CG style diagonalization
     ethr =  6.86E-05,  avg # of iterations =  3.1

     total cpu time spent up to now is      244.0 secs

     total energy              =    -634.76727953 Ry
     Harris-Foulkes estimate   =    -634.76736537 Ry
     estimated scf accuracy    <       0.00019701 Ry

     iteration #  5     ecut=    40.00 Ry     beta=0.70
     CG style diagonalization
     c_bands:  1 eigenvalues not converged
     c_bands:  1 eigenvalues not converged
     c_bands:  1 eigenvalues not converged
     c_bands:  1 eigenvalues not converged
     ethr =  3.03E-07,  avg # of iterations =  4.6

     total cpu time spent up to now is      250.6 secs

     total energy              =    -634.76755387 Ry
     Harris-Foulkes estimate   =    -634.76757990 Ry
     estimated scf accuracy    <       0.00006600 Ry

     iteration #  6     ecut=    40.00 Ry     beta=0.70
     CG style diagonalization
     ethr =  1.02E-07,  avg # of iterations =  3.1

     total cpu time spent up to now is      255.6 secs

     total energy              =    -634.76756218 Ry
     Harris-Foulkes estimate   =    -634.76756283 Ry
     estimated scf accuracy    <       0.00000157 Ry

     iteration #  7     ecut=    40.00 Ry     beta=0.70
     CG style diagonalization
     ethr =  2.41E-09,  avg # of iterations =  4.3

     total cpu time spent up to now is      261.6 secs

     End of self-consistent calculation

     Number of k-points >= 100: set verbosity='high' to print the bands.

     the Fermi energy is    37.7238 ev

!    total energy              =    -634.76756319 Ry
     Harris-Foulkes estimate   =    -634.76756331 Ry
     estimated scf accuracy    <       0.00000013 Ry

     The total energy is the sum of the following terms:

     one-electron contribution =      74.29263357 Ry
     hartree contribution      =      43.35755545 Ry
     xc contribution           =     -70.49680627 Ry
     ewald contribution        =    -681.77284954 Ry
     smearing contrib. (-TS)   =      -0.14809639 Ry

     convergence has been achieved in   7 iterations

     Forces acting on atoms (Ry/au):

     atom    1 type  1   force =     0.00000000    0.00000000    0.00000000
     atom    2 type  1   force =     0.00000000    0.00000000    0.00000000
     atom    3 type  1   force =     0.00000000    0.00000000    0.00000000
     atom    4 type  2   force =     0.00000000    0.00000000    0.00000000

     Total force =     0.000000     Total SCF correction =     0.000000


     entering subroutine stress ...

          total   stress  (Ry/bohr**3)                   (kbar)     P= 2212.72
   0.01504180   0.00000000   0.00000000       2212.72      0.00      0.00
   0.00000000   0.01504180   0.00000000          0.00   2212.72      0.00
   0.00000000   0.00000000   0.01504180          0.00      0.00   2212.72


     The maximum number of steps has been reached.

     End of BFGS Geometry Optimization
Begin final coordinates
     new unit-cell volume =    361.78299 a.u.^3 (    53.61071 Ang^3 )

CELL_PARAMETERS (alat=  7.13166486)
   0.999137182   0.000000000   0.000000000
   0.000000000   0.999137182   0.000000000
   0.000000000   0.000000000   0.999137182

ATOMIC_POSITIONS (crystal)
Cu       0.000000000   0.500000000   0.500000000
Cu       0.500000000   0.500000000   0.000000000
Cu       0.500000000   0.000000000   0.500000000
Au       0.000000000   0.000000000   0.000000000
End final coordinates



     A final scf calculation at the relaxed structure.
     The G-vectors are recalculated for the final unit cell
     Results may differ from those at the preceding step.
 
     Parallelization info
     --------------------
     sticks:   dense  smooth     PW     G-vecs:    dense   smooth      PW
     Min         163     163     48                 3073     3073     524
     Max         165     165     49                 3074     3074     527
     Sum         657     657    193                12293    12293    2103
 


     bravais-lattice index     =            0
     lattice parameter (alat)  =       7.1317  a.u.
     unit-cell volume          =     361.7830 (a.u.)^3
     number of atoms/cell      =            4
     number of atomic types    =            2
     number of electrons       =        65.00
     number of Kohn-Sham states=           40
     kinetic-energy cutoff     =      40.0000  Ry
     charge density cutoff     =     160.0000  Ry
     convergence threshold     =      1.0E-06
     mixing beta               =       0.7000
     number of iterations used =            8  plain     mixing
     Exchange-correlation      = SLA-PZ-NOGX-NOGC ( 1 1 0 0 0)
     EXX-fraction              =        0.00

     celldm(1)=   7.131665  celldm(2)=   0.000000  celldm(3)=   0.000000
     celldm(4)=   0.000000  celldm(5)=   0.000000  celldm(6)=   0.000000

     crystal axes: (cart. coord. in units of alat)
               a(1) = (   0.999137   0.000000   0.000000 )  
               a(2) = (   0.000000   0.999137   0.000000 )  
               a(3) = (   0.000000   0.000000   0.999137 )  

     reciprocal axes: (cart. coord. in units 2 pi/alat)
               b(1) = (  1.000864  0.000000  0.000000 )  
               b(2) = (  0.000000  1.000864  0.000000 )  
               b(3) = (  0.000000  0.000000  1.000864 )  


     PseudoPot. # 1 for Eu read from file:
     /home/cwx6513/pp.La/Eu.UPF
     MD5 check sum: 5efdbbfc50c6a10138933a6429836ad2
     Pseudo is Norm-conserving, Zval = 17.0
     Generated in analytical, separable form
     Using radial grid of 1261 points,  6 beta functions with: 
                l(1) =   0
                l(2) =   0
                l(3) =   1
                l(4) =   1
                l(5) =   2
                l(6) =   3

     PseudoPot. # 2 for Nd read from file:
     /home/cwx6513/pp.La/Nd.UPF
     MD5 check sum: c66c5b6abe7b5840ced9b1e244e3bed6
     Pseudo is Norm-conserving, Zval = 14.0
     Generated in analytical, separable form
     Using radial grid of 1257 points,  6 beta functions with: 
                l(1) =   0
                l(2) =   0
                l(3) =   1
                l(4) =   1
                l(5) =   2
                l(6) =   3

     atomic species   valence    mass     pseudopotential
        Cu            17.00    63.54600     Eu( 1.00)
        Au            14.00   196.96600     Nd( 1.00)

     48 Sym. Ops., with inversion, found



   Cartesian axes

     site n.     atom                  positions (alat units)
         1           Cu  tau(   1) = (   0.0000000   0.4995686   0.4995686  )
         2           Cu  tau(   2) = (   0.4995686   0.4995686   0.0000000  )
         3           Cu  tau(   3) = (   0.4995686   0.0000000   0.4995686  )
         4           Au  tau(   4) = (   0.0000000   0.0000000   0.0000000  )

     number of k points=   100  gaussian smearing, width (Ry)=  0.1000

     Number of k-points >= 100: set verbosity='high' to print them.

     Dense  grid:    12293 G-vectors     FFT dimensions: (  30,  30,  30)

     Largest allocated arrays     est. size (Mb)     dimensions
        Kohn-Sham Wavefunctions         0.24 Mb     (    400,   40)
        NL pseudopotentials             0.49 Mb     (    400,   80)
        Each V/rho on FFT grid          0.11 Mb     (   7200)
        Each G-vector array             0.02 Mb     (   3074)
        G-vector shells                 0.00 Mb     (    172)
     Largest temporary arrays     est. size (Mb)     dimensions
        Each subspace H/S matrix        0.02 Mb     (  40,  40)
        Each <psi_i|beta_j> matrix      0.05 Mb     (     80,   40)
        Arrays for rho mixing           0.88 Mb     (   7200,   8)

     Initial potential from superposition of free atoms

     Starting from uniform charge
     Starting wfc are    0 randomized atomic wfcs

     Writing output data file Prototype-La-cP4-Cu3Au.save

     total cpu time spent up to now is      264.4 secs

     Self-consistent Calculation

     iteration #  1     ecut=    40.00 Ry     beta=0.70
     CG style diagonalization
     c_bands:  2 eigenvalues not converged
     c_bands:  1 eigenvalues not converged
     c_bands:  2 eigenvalues not converged
     c_bands:  3 eigenvalues not converged
     c_bands:  4 eigenvalues not converged
     c_bands:  1 eigenvalues not converged
     c_bands:  3 eigenvalues not converged
     c_bands:  1 eigenvalues not converged
     c_bands:  3 eigenvalues not converged
     c_bands:  1 eigenvalues not converged
     c_bands:  1 eigenvalues not converged
     c_bands:  3 eigenvalues not converged
     c_bands:  4 eigenvalues not converged
     c_bands:  4 eigenvalues not converged
     c_bands:  1 eigenvalues not converged
     c_bands:  3 eigenvalues not converged
     c_bands:  3 eigenvalues not converged
     c_bands:  4 eigenvalues not converged
     c_bands:  4 eigenvalues not converged
     c_bands:  4 eigenvalues not converged
     c_bands:  3 eigenvalues not converged
     c_bands:  3 eigenvalues not converged
     c_bands:  3 eigenvalues not converged
     c_bands:  3 eigenvalues not converged
     c_bands:  1 eigenvalues not converged
     c_bands:  2 eigenvalues not converged
     c_bands:  2 eigenvalues not converged
     c_bands:  4 eigenvalues not converged
     c_bands:  1 eigenvalues not converged
     c_bands:  1 eigenvalues not converged
     c_bands:  2 eigenvalues not converged
     c_bands:  1 eigenvalues not converged
     c_bands:  4 eigenvalues not converged
     c_bands:  5 eigenvalues not converged
     c_bands:  2 eigenvalues not converged
     c_bands:  2 eigenvalues not converged
     c_bands:  3 eigenvalues not converged
     c_bands:  3 eigenvalues not converged
     c_bands:  3 eigenvalues not converged
     c_bands:  3 eigenvalues not converged
     c_bands:  4 eigenvalues not converged
     c_bands:  2 eigenvalues not converged
     c_bands:  3 eigenvalues not converged
     c_bands:  3 eigenvalues not converged
     c_bands:  3 eigenvalues not converged
     c_bands:  3 eigenvalues not converged
     c_bands:  4 eigenvalues not converged
     c_bands:  3 eigenvalues not converged
     c_bands:  1 eigenvalues not converged
     c_bands:  3 eigenvalues not converged
     c_bands:  2 eigenvalues not converged
     c_bands:  4 eigenvalues not converged
     c_bands:  4 eigenvalues not converged
     c_bands:  3 eigenvalues not converged
     c_bands:  4 eigenvalues not converged
     c_bands:  1 eigenvalues not converged
     c_bands:  3 eigenvalues not converged
     c_bands:  4 eigenvalues not converged
     c_bands:  3 eigenvalues not converged
     c_bands:  2 eigenvalues not converged
     c_bands:  2 eigenvalues not converged
     c_bands:  1 eigenvalues not converged
     c_bands:  3 eigenvalues not converged
     c_bands:  4 eigenvalues not converged
     c_bands:  4 eigenvalues not converged
     c_bands:  2 eigenvalues not converged
     c_bands:  2 eigenvalues not converged
     c_bands:  3 eigenvalues not converged
     c_bands:  3 eigenvalues not converged
     c_bands:  4 eigenvalues not converged
     c_bands:  3 eigenvalues not converged
     c_bands:  1 eigenvalues not converged
     c_bands:  3 eigenvalues not converged
     c_bands:  3 eigenvalues not converged
     c_bands:  3 eigenvalues not converged
     c_bands:  3 eigenvalues not converged
     c_bands:  4 eigenvalues not converged
     c_bands:  3 eigenvalues not converged
     c_bands:  4 eigenvalues not converged
     c_bands:  3 eigenvalues not converged
     c_bands:  4 eigenvalues not converged
     c_bands:  3 eigenvalues not converged
     c_bands:  4 eigenvalues not converged
     c_bands:  4 eigenvalues not converged
     c_bands:  3 eigenvalues not converged
     c_bands:  2 eigenvalues not converged
     c_bands:  2 eigenvalues not converged
     c_bands:  1 eigenvalues not converged
     c_bands:  4 eigenvalues not converged
     c_bands:  3 eigenvalues not converged
     c_bands:  2 eigenvalues not converged
     c_bands:  2 eigenvalues not converged
     c_bands:  3 eigenvalues not converged
     c_bands:  4 eigenvalues not converged
     c_bands:  3 eigenvalues not converged
     c_bands:  2 eigenvalues not converged
     c_bands:  2 eigenvalues not converged
     c_bands:  2 eigenvalues not converged
     ethr =  1.00E-06,  avg # of iterations = 39.7

     total cpu time spent up to now is      318.5 secs

     total energy              =    -589.48887050 Ry
     Harris-Foulkes estimate   =    -701.52136828 Ry
     estimated scf accuracy    <     149.13889179 Ry

     iteration #  2     ecut=    40.00 Ry     beta=0.70
     CG style diagonalization
     c_bands:  1 eigenvalues not converged
     c_bands:  1 eigenvalues not converged
     c_bands:  1 eigenvalues not converged
     c_bands:  1 eigenvalues not converged
     c_bands:  1 eigenvalues not converged
     c_bands:  1 eigenvalues not converged
     c_bands:  1 eigenvalues not converged
     c_bands:  1 eigenvalues not converged
     c_bands:  1 eigenvalues not converged
     c_bands:  1 eigenvalues not converged
     ethr =  1.00E-02,  avg # of iterations =  8.9

     total cpu time spent up to now is      331.6 secs

     total energy              =    -595.14695848 Ry
     Harris-Foulkes estimate   =    -656.32928619 Ry
     estimated scf accuracy    <     104.46227388 Ry

     iteration #  3     ecut=    40.00 Ry     beta=0.70
     CG style diagonalization
     c_bands:  1 eigenvalues not converged
     c_bands:  1 eigenvalues not converged
     ethr =  1.00E-02,  avg # of iterations =  7.5

     total cpu time spent up to now is      342.9 secs

     total energy              =    -632.90927310 Ry
     Harris-Foulkes estimate   =    -643.78730879 Ry
     estimated scf accuracy    <      25.40484616 Ry

     iteration #  4     ecut=    40.00 Ry     beta=0.70
     CG style diagonalization
     ethr =  1.00E-02,  avg # of iterations =  3.8

     total cpu time spent up to now is      348.4 secs

     total energy              =    -634.31202603 Ry
     Harris-Foulkes estimate   =    -635.41185918 Ry
     estimated scf accuracy    <       3.43181989 Ry

     iteration #  5     ecut=    40.00 Ry     beta=0.70
     CG style diagonalization
     ethr =  5.28E-03,  avg # of iterations =  3.3

     total cpu time spent up to now is      353.4 secs

     total energy              =    -634.55157441 Ry
     Harris-Foulkes estimate   =    -634.74806908 Ry
     estimated scf accuracy    <       0.36924398 Ry

     iteration #  6     ecut=    40.00 Ry     beta=0.70
     CG style diagonalization
     c_bands:  1 eigenvalues not converged
     c_bands:  1 eigenvalues not converged
     c_bands:  1 eigenvalues not converged
     c_bands:  1 eigenvalues not converged
     c_bands:  1 eigenvalues not converged
     c_bands:  1 eigenvalues not converged
     c_bands:  1 eigenvalues not converged
     c_bands:  1 eigenvalues not converged
     ethr =  5.68E-04,  avg # of iterations =  4.9

     total cpu time spent up to now is      360.9 secs

     total energy              =    -634.73102512 Ry
     Harris-Foulkes estimate   =    -634.79804635 Ry
     estimated scf accuracy    <       0.16840297 Ry

     iteration #  7     ecut=    40.00 Ry     beta=0.70
     CG style diagonalization
     c_bands:  1 eigenvalues not converged
     c_bands:  1 eigenvalues not converged
     ethr =  2.59E-04,  avg # of iterations =  3.4

     total cpu time spent up to now is      365.7 secs

     total energy              =    -634.76191632 Ry
     Harris-Foulkes estimate   =    -634.76202431 Ry
     estimated scf accuracy    <       0.00022819 Ry

     iteration #  8     ecut=    40.00 Ry     beta=0.70
     CG style diagonalization
     c_bands:  2 eigenvalues not converged
     c_bands:  1 eigenvalues not converged
     c_bands:  1 eigenvalues not converged
     c_bands:  1 eigenvalues not converged
     c_bands:  1 eigenvalues not converged
     c_bands:  1 eigenvalues not converged
     c_bands:  1 eigenvalues not converged
     c_bands:  1 eigenvalues not converged
     c_bands:  1 eigenvalues not converged
     c_bands:  1 eigenvalues not converged
     c_bands:  1 eigenvalues not converged
     c_bands:  1 eigenvalues not converged
     c_bands:  1 eigenvalues not converged
     c_bands:  1 eigenvalues not converged
     c_bands:  1 eigenvalues not converged
     c_bands:  1 eigenvalues not converged
     c_bands:  2 eigenvalues not converged
     c_bands:  1 eigenvalues not converged
     c_bands:  1 eigenvalues not converged
     c_bands:  1 eigenvalues not converged
     c_bands:  1 eigenvalues not converged
     c_bands:  1 eigenvalues not converged
     c_bands:  1 eigenvalues not converged
     c_bands:  1 eigenvalues not converged
     c_bands:  2 eigenvalues not converged
     c_bands:  2 eigenvalues not converged
     c_bands:  1 eigenvalues not converged
     c_bands:  1 eigenvalues not converged
     c_bands:  1 eigenvalues not converged
     c_bands:  2 eigenvalues not converged
     c_bands:  1 eigenvalues not converged
     c_bands:  1 eigenvalues not converged
     c_bands:  1 eigenvalues not converged
     c_bands:  2 eigenvalues not converged
     c_bands:  1 eigenvalues not converged
     c_bands:  2 eigenvalues not converged
     c_bands:  1 eigenvalues not converged
     c_bands:  1 eigenvalues not converged
     ethr =  3.51E-07,  avg # of iterations =  7.0

     total cpu time spent up to now is      376.3 secs

     total energy              =    -634.76396808 Ry
     Harris-Foulkes estimate   =    -634.76398717 Ry
     estimated scf accuracy    <       0.00007230 Ry

     iteration #  9     ecut=    40.00 Ry     beta=0.70
     CG style diagonalization
     c_bands:  1 eigenvalues not converged
     c_bands:  1 eigenvalues not converged
     c_bands:  1 eigenvalues not converged
     c_bands:  1 eigenvalues not converged
     c_bands:  1 eigenvalues not converged
     ethr =  1.11E-07,  avg # of iterations =  3.7

     total cpu time spent up to now is      381.6 secs

     total energy              =    -634.76396201 Ry
     Harris-Foulkes estimate   =    -634.76398163 Ry
     estimated scf accuracy    <       0.00008234 Ry

     iteration # 10     ecut=    40.00 Ry     beta=0.70
     CG style diagonalization
     ethr =  1.11E-07,  avg # of iterations =  3.0

     total cpu time spent up to now is      385.9 secs

     total energy              =    -634.76395864 Ry
     Harris-Foulkes estimate   =    -634.76396616 Ry
     estimated scf accuracy    <       0.00002109 Ry

     iteration # 11     ecut=    40.00 Ry     beta=0.70
     CG style diagonalization
     ethr =  3.24E-08,  avg # of iterations =  3.2

     total cpu time spent up to now is      390.3 secs

     End of self-consistent calculation

     Number of k-points >= 100: set verbosity='high' to print the bands.

     the Fermi energy is    37.7242 ev

!    total energy              =    -634.76396252 Ry
     Harris-Foulkes estimate   =    -634.76396253 Ry
     estimated scf accuracy    <       0.00000001 Ry

     The total energy is the sum of the following terms:

     one-electron contribution =      74.29796351 Ry
     hartree contribution      =      43.35547116 Ry
     xc contribution           =     -70.49644352 Ry
     ewald contribution        =    -681.77284954 Ry
     smearing contrib. (-TS)   =      -0.14810413 Ry

     convergence has been achieved in  11 iterations

     Forces acting on atoms (Ry/au):

     atom    1 type  1   force =     0.00000000    0.00000000    0.00000000
     atom    2 type  1   force =     0.00000000    0.00000000    0.00000000
     atom    3 type  1   force =     0.00000000    0.00000000    0.00000000
     atom    4 type  2   force =     0.00000000    0.00000000    0.00000000

     Total force =     0.000000     Total SCF correction =     0.000000


     entering subroutine stress ...

          total   stress  (Ry/bohr**3)                   (kbar)     P= 2208.99
   0.01501640   0.00000000   0.00000000       2208.99      0.00      0.00
   0.00000000   0.01501640   0.00000000          0.00   2208.99      0.00
   0.00000000   0.00000000   0.01501640          0.00      0.00   2208.99


     Writing output data file Prototype-La-cP4-Cu3Au.save
 
     init_run     :      2.50s CPU      2.80s WALL (       2 calls)
     electrons    :    356.11s CPU    379.01s WALL (       5 calls)
     update_pot   :      0.81s CPU      0.83s WALL (       3 calls)
     forces       :      1.69s CPU      1.90s WALL (       5 calls)
     stress       :      4.91s CPU      4.97s WALL (       5 calls)

     Called by init_run:
     wfcinit      :      2.11s CPU      2.41s WALL (       2 calls)
     potinit      :      0.16s CPU      0.16s WALL (       2 calls)

     Called by electrons:
     c_bands      :    339.23s CPU    354.65s WALL (      42 calls)
     sum_band     :     16.73s CPU     17.37s WALL (      42 calls)
     v_of_rho     :      0.03s CPU      0.03s WALL (      47 calls)
     mix_rho      :      0.03s CPU      0.03s WALL (      42 calls)

     Called by c_bands:
     init_us_2    :      2.08s CPU      2.24s WALL (    9600 calls)
     ccgdiagg     :    295.83s CPU    306.24s WALL (    4575 calls)
     wfcrot       :     43.70s CPU     47.80s WALL (    4675 calls)

     Called by *cgdiagg:
     h_psi        :    227.85s CPU    243.97s WALL (  878068 calls)
     cdiaghg      :      2.30s CPU      2.58s WALL (    4675 calls)

     Called by h_psi:
     add_vuspsi   :     14.89s CPU     23.05s WALL (  878068 calls)

     General routines
     calbec       :     66.04s CPU     63.16s WALL ( 1752461 calls)
     fft          :      0.07s CPU      0.07s WALL (     211 calls)
     fftw         :    177.52s CPU    178.34s WALL ( 2288786 calls)
     davcio       :      1.06s CPU      2.10s WALL (   13800 calls)
 
     Parallel routines
     fft_scatter  :     65.94s CPU     68.46s WALL ( 2288997 calls)
 
     PWSCF        :  6m 6.82s CPU     6m31.76s WALL

 
   This run was terminated on:  21:20: 7  22Mar2018            

=------------------------------------------------------------------------------=
   JOB DONE.
=------------------------------------------------------------------------------=
