
     Program PWSCF v.5.0.2 starts on 22Mar2018 at 17:33: 0 

     This program is part of the open-source Quantum ESPRESSO suite
     for quantum simulation of materials; please cite
         "P. Giannozzi et al., J. Phys.:Condens. Matter 21 395502 (2009);
          URL http://www.quantum-espresso.org", 
     in publications or presentations arising from this work. More details at
     http://www.quantum-espresso.org/quote.php

     Parallel version (MPI), running on     4 processors
     R & G space division:  proc/nbgrp/npool/nimage =       4

     Current dimensions of program PWSCF are:
     Max number of different atomic species (ntypx) = 10
     Max number of k-points (npk) =  40000
     Max angular momentum in pseudopotentials (lmaxx) =  3
     Waiting for input...
     Reading input from standard input

     Subspace diagonalization in iterative solution of the eigenvalue problem:
     a serial algorithm will be used

 
     Parallelization info
     --------------------
     sticks:   dense  smooth     PW     G-vecs:    dense   smooth      PW
     Min         207     207     61                 7381     7381    1191
     Max         208     208     62                 7386     7386    1192
     Sum         829     829    247                29529    29529    4767
 


     bravais-lattice index     =            0
     lattice parameter (alat)  =       7.0151  a.u.
     unit-cell volume          =     862.2778 (a.u.)^3
     number of atoms/cell      =           12
     number of atomic types    =            2
     number of electrons       =       184.00
     number of Kohn-Sham states=          110
     kinetic-energy cutoff     =      40.0000  Ry
     charge density cutoff     =     160.0000  Ry
     convergence threshold     =      1.0E-04
     mixing beta               =       0.7000
     number of iterations used =            8  plain     mixing
     Exchange-correlation      = SLA-PZ-NOGX-NOGC ( 1 1 0 0 0)
     EXX-fraction              =        0.00
     nstep                     =           50


     celldm(1)=   7.015105  celldm(2)=   0.000000  celldm(3)=   0.000000
     celldm(4)=   0.000000  celldm(5)=   0.000000  celldm(6)=   0.000000

     crystal axes: (cart. coord. in units of alat)
               a(1) = (   1.000000   0.000000   0.000000 )  
               a(2) = (   0.000000   1.315963   0.000000 )  
               a(3) = (   0.000000   0.000000   1.898020 )  

     reciprocal axes: (cart. coord. in units 2 pi/alat)
               b(1) = (  1.000000  0.000000  0.000000 )  
               b(2) = (  0.000000  0.759900  0.000000 )  
               b(3) = (  0.000000  0.000000  0.526865 )  


     PseudoPot. # 1 for Nd read from file:
     /home/cwx6513/pp.La/Nd.UPF
     MD5 check sum: c66c5b6abe7b5840ced9b1e244e3bed6
     Pseudo is Norm-conserving, Zval = 14.0
     Generated in analytical, separable form
     Using radial grid of 1257 points,  6 beta functions with: 
                l(1) =   0
                l(2) =   0
                l(3) =   1
                l(4) =   1
                l(5) =   2
                l(6) =   3

     PseudoPot. # 2 for Gd read from file:
     /home/cwx6513/pp.La/Gd.UPF
     MD5 check sum: 09a8be538722f05520810cb6aac0efd2
     Pseudo is Norm-conserving, Zval = 18.0
     Generated in analytical, separable form
     Using radial grid of 1263 points,  6 beta functions with: 
                l(1) =   0
                l(2) =   0
                l(3) =   1
                l(4) =   1
                l(5) =   2
                l(6) =   3

     atomic species   valence    mass     pseudopotential
        Co            14.00    58.93320     Nd( 1.00)
        Si            18.00    28.08550     Gd( 1.00)

      8 Sym. Ops., with inversion, found ( 6 have fractional translation)



   Cartesian axes

     site n.     atom                  positions (alat units)
         1           Co  tau(   1) = (   0.7500000   1.0875135   0.8270358  )
         2           Co  tau(   2) = (   0.2500000   0.2284499   1.0709846  )
         3           Co  tau(   3) = (   0.7500000   0.4295318   0.1219744  )
         4           Co  tau(   4) = (   0.2500000   0.8864316   1.7760460  )
         5           Co  tau(   5) = (   0.2500000   0.7067855   0.5358966  )
         6           Co  tau(   6) = (   0.7500000   0.6091779   1.3621238  )
         7           Co  tau(   7) = (   0.2500000   0.0488038   0.4131136  )
         8           Co  tau(   8) = (   0.7500000   1.2671596   1.4849068  )
         9           Si  tau(   9) = (   0.2500000   0.2669484   1.6960710  )
        10           Si  tau(  10) = (   0.7500000   1.0490149   0.2019494  )
        11           Si  tau(  11) = (   0.2500000   0.9249301   1.1509596  )
        12           Si  tau(  12) = (   0.7500000   0.3910333   0.7470608  )

     number of k points=    12  gaussian smearing, width (Ry)=  0.1000
                       cart. coord. in units 2pi/alat
        k(    1) = (   0.0000000   0.0000000   0.0000000), wk =   0.0833333
        k(    2) = (   0.0000000   0.0000000   0.1317162), wk =   0.1666667
        k(    3) = (   0.0000000   0.0000000  -0.2634324), wk =   0.0833333
        k(    4) = (   0.0000000   0.2532999   0.0000000), wk =   0.1666667
        k(    5) = (   0.0000000   0.2532999   0.1317162), wk =   0.3333333
        k(    6) = (   0.0000000   0.2532999  -0.2634324), wk =   0.1666667
        k(    7) = (  -0.5000000   0.0000000   0.0000000), wk =   0.0833333
        k(    8) = (  -0.5000000   0.0000000   0.1317162), wk =   0.1666667
        k(    9) = (  -0.5000000   0.0000000  -0.2634324), wk =   0.0833333
        k(   10) = (  -0.5000000   0.2532999   0.0000000), wk =   0.1666667
        k(   11) = (  -0.5000000   0.2532999   0.1317162), wk =   0.3333333
        k(   12) = (  -0.5000000   0.2532999  -0.2634324), wk =   0.1666667

     Dense  grid:    29529 G-vectors     FFT dimensions: (  30,  40,  54)

     Largest allocated arrays     est. size (Mb)     dimensions
        Kohn-Sham Wavefunctions         1.55 Mb     (    922,  110)
        NL pseudopotentials             3.38 Mb     (    922,  240)
        Each V/rho on FFT grid          0.26 Mb     (  16800)
        Each G-vector array             0.06 Mb     (   7386)
        G-vector shells                 0.06 Mb     (   7386)
     Largest temporary arrays     est. size (Mb)     dimensions
        Each subspace H/S matrix        0.18 Mb     ( 110, 110)
        Each <psi_i|beta_j> matrix      0.40 Mb     (    240,  110)
        Arrays for rho mixing           2.05 Mb     (  16800,   8)

     Initial potential from superposition of free atoms

     Starting from uniform charge
     Starting wfc are    0 randomized atomic wfcs

     total cpu time spent up to now is        3.0 secs

     Self-consistent Calculation

     iteration #  1     ecut=    40.00 Ry     beta=0.70
     CG style diagonalization
     c_bands:  5 eigenvalues not converged
     c_bands:  4 eigenvalues not converged
     c_bands:  2 eigenvalues not converged
     c_bands:  2 eigenvalues not converged
     c_bands:  2 eigenvalues not converged
     c_bands:  2 eigenvalues not converged
     c_bands:  1 eigenvalues not converged
     ethr =  1.00E-02,  avg # of iterations = 13.5

     total cpu time spent up to now is       28.8 secs

     total energy              =   -1301.07494989 Ry
     Harris-Foulkes estimate   =   -1841.77200893 Ry
     estimated scf accuracy    <     671.72067376 Ry

     iteration #  2     ecut=    40.00 Ry     beta=0.70
     CG style diagonalization
     c_bands:  3 eigenvalues not converged
     c_bands:  1 eigenvalues not converged
     c_bands:  2 eigenvalues not converged
     c_bands:  1 eigenvalues not converged
     c_bands:  3 eigenvalues not converged
     c_bands:  1 eigenvalues not converged
     c_bands:  2 eigenvalues not converged
     c_bands:  1 eigenvalues not converged
     c_bands:  2 eigenvalues not converged
     ethr =  1.00E-02,  avg # of iterations = 11.4

     total cpu time spent up to now is       50.7 secs

     total energy              =   -1540.80030145 Ry
     Harris-Foulkes estimate   =   -1959.44354340 Ry
     estimated scf accuracy    <     799.23297856 Ry

     iteration #  3     ecut=    40.00 Ry     beta=0.70
     CG style diagonalization
     ethr =  1.00E-02,  avg # of iterations = 10.6

     total cpu time spent up to now is       69.8 secs

     total energy              =   -1669.88599157 Ry
     Harris-Foulkes estimate   =   -1687.89698464 Ry
     estimated scf accuracy    <      32.43400484 Ry

     iteration #  4     ecut=    40.00 Ry     beta=0.70
     CG style diagonalization
     ethr =  1.00E-02,  avg # of iterations =  4.0

     total cpu time spent up to now is       76.8 secs

     total energy              =   -1675.24940008 Ry
     Harris-Foulkes estimate   =   -1678.95545332 Ry
     estimated scf accuracy    <       8.40747858 Ry

     iteration #  5     ecut=    40.00 Ry     beta=0.70
     CG style diagonalization
     ethr =  4.57E-03,  avg # of iterations =  3.5

     total cpu time spent up to now is       82.9 secs

     total energy              =   -1676.60699348 Ry
     Harris-Foulkes estimate   =   -1677.10628088 Ry
     estimated scf accuracy    <       1.01340817 Ry

     iteration #  6     ecut=    40.00 Ry     beta=0.70
     CG style diagonalization
     c_bands:  1 eigenvalues not converged
     c_bands:  1 eigenvalues not converged
     ethr =  5.51E-04,  avg # of iterations =  4.3

     total cpu time spent up to now is       90.4 secs

     total energy              =   -1676.86886246 Ry
     Harris-Foulkes estimate   =   -1676.94216853 Ry
     estimated scf accuracy    <       0.13508423 Ry

     iteration #  7     ecut=    40.00 Ry     beta=0.70
     CG style diagonalization
     c_bands:  1 eigenvalues not converged
     c_bands:  1 eigenvalues not converged
     ethr =  7.34E-05,  avg # of iterations =  4.5

     total cpu time spent up to now is       98.4 secs

     total energy              =   -1676.92069687 Ry
     Harris-Foulkes estimate   =   -1676.93717264 Ry
     estimated scf accuracy    <       0.03844709 Ry

     iteration #  8     ecut=    40.00 Ry     beta=0.70
     CG style diagonalization
     c_bands:  1 eigenvalues not converged
     ethr =  2.09E-05,  avg # of iterations =  3.7

     total cpu time spent up to now is      104.8 secs

     total energy              =   -1676.92576631 Ry
     Harris-Foulkes estimate   =   -1676.92886037 Ry
     estimated scf accuracy    <       0.00585299 Ry

     iteration #  9     ecut=    40.00 Ry     beta=0.70
     CG style diagonalization
     c_bands:  1 eigenvalues not converged
     ethr =  3.18E-06,  avg # of iterations =  4.3

     total cpu time spent up to now is      112.4 secs

     End of self-consistent calculation

          k = 0.0000 0.0000 0.0000 (  3675 PWs)   bands (ev):

   -25.0652 -25.0005 -24.9804 -24.9510  -3.6716  -3.3864  -3.2343  -1.9736
    -1.7975  -1.6951  -1.5215  -1.4714   2.4548   2.7261   2.8388   2.8644
     2.9511   3.2347   3.4449   3.5238   3.5485   3.6416   4.0517   4.1965
    14.8581  15.4902  15.8376  16.3890  16.8927  17.1522  17.3344  17.5805
    18.3738  18.3872  18.3953  18.6420  18.8519  19.2044  19.7916  19.9150
    20.0588  20.1212  20.4087  20.9534  21.9010  22.0862  22.4721  22.9228
    32.6075  32.9435  33.6017  34.1879  34.2028  34.2569  34.5125  34.6429
    35.4023  35.7886  36.0733  36.7011  36.8100  37.3325  37.9844  38.8000
    38.8595  38.8595  40.1191  40.1746  40.3386  41.2185  41.4098  41.6828
    41.7485  41.7729  42.2217  42.8206  43.1908  43.4448  43.7396  43.8184
    44.2757  44.6438  44.6984  45.4173  45.7631  45.9354  46.2318  46.4929
    46.5811  47.0036  47.6559  47.7535  48.2758  49.0952  49.2440  49.4259
    49.9692  50.7380  50.7551  51.3810  51.5964  52.3550  52.5696  52.6648
    52.7573  53.0769  53.1630  53.4529  53.5387  54.0621

          k = 0.0000 0.0000 0.1317 (  3675 PWs)   bands (ev):

   -25.0587 -25.0166 -24.9686 -24.9534  -3.6885  -3.5833  -2.8991  -2.0961
    -1.8681  -1.7003  -1.5444  -1.3658   2.4903   2.6645   2.8797   2.9407
     3.0162   3.1955   3.3442   3.5652   3.6265   3.6777   3.9457   4.0712
    14.9234  15.5105  15.9310  16.4756  17.0028  17.1183  17.4089  17.5230
    18.2904  18.4333  18.6170  18.8273  18.8346  19.0033  19.2826  19.7648
    20.0181  20.6466  20.7074  20.7077  21.6886  21.7716  22.5044  22.8414
    32.5296  33.0146  33.5802  33.7097  34.0695  34.3963  34.8392  34.9240
    35.6015  35.7003  36.4729  36.7414  37.0149  38.0546  38.1234  38.4079
    38.6163  38.8131  39.5541  39.7209  40.2259  41.3463  41.7748  41.8319
    42.0045  42.4613  42.8085  42.8902  43.2809  43.5665  43.6148  43.7422
    43.9817  44.0290  44.0542  45.0535  45.5416  45.6466  45.7838  46.5351
    47.3334  47.4046  47.8635  48.1652  48.5266  48.5781  48.6832  49.2717
    49.3537  49.4825  50.8902  51.2800  51.3051  51.3656  52.5419  52.8901
    52.9716  53.0260  53.9718  54.0747  54.1068  54.1129

          k = 0.0000 0.0000-0.2634 (  3690 PWs)   bands (ev):

   -25.0406 -25.0406 -24.9598 -24.9598  -3.6887  -3.6887  -2.4488  -2.4488
    -1.8473  -1.8473  -1.3860  -1.3860   2.5679   2.5679   2.9214   2.9214
     3.1744   3.1744   3.4732   3.4732   3.6492   3.6492   3.8814   3.8814
    15.1551  15.1551  16.7110  16.7110  16.7408  16.7408  17.6521  17.6520
    18.0374  18.0374  18.7622  18.7622  18.9717  18.9717  19.7984  19.7984
    19.9701  19.9700  20.9959  20.9959  21.3723  21.3723  22.6488  22.6488
    32.7727  32.7727  33.2007  33.2007  34.4275  34.4275  35.3779  35.3779
    36.3419  36.3419  36.3437  36.3437  37.4504  37.4504  37.7503  37.7503
    39.0464  39.0464  39.1171  39.1171  41.1444  41.1444  42.2765  42.2765
    42.4167  42.4167  43.1171  43.1171  43.1359  43.1359  43.5544  43.5544
    44.0086  44.0086  44.4608  44.4608  45.3928  45.3928  46.1650  46.1650
    46.9910  46.9911  47.5263  47.5263  47.6905  47.6905  49.2597  49.2597
    49.7919  49.7919  51.0214  51.0215  51.5824  51.5823  52.3539  52.3536
    53.1414  53.1415  54.1460  54.1456  54.7843  54.7844

          k = 0.0000 0.2533 0.0000 (  3664 PWs)   bands (ev):

   -25.0417 -25.0040 -24.9786 -24.9667  -3.6603  -3.4756  -3.2278  -2.7082
    -1.9038  -1.7089  -1.1565  -1.0553   2.5646   2.7260   2.8282   2.8647
     2.9077   3.0170   3.3828   3.4905   3.7877   3.8886   4.3107   4.3533
    15.3449  16.2114  16.4263  16.4673  16.5258  16.6480  16.6701  17.5398
    17.7203  17.7820  18.2307  18.7788  18.9190  19.7515  19.8605  20.0371
    20.2325  20.4957  20.6415  20.7249  21.0868  21.3096  21.6422  21.7486
    33.5175  33.6532  33.7851  34.3904  35.2211  35.2620  35.3868  35.8582
    35.8961  36.0982  36.1154  36.6338  36.8850  37.8455  37.9351  38.7638
    38.7783  39.3986  39.5475  39.6807  39.7493  40.4673  40.5830  41.1452
    41.9271  42.1471  42.6987  43.0459  43.4941  43.5730  43.9294  44.1422
    44.6720  44.6746  45.1377  45.2363  45.9871  46.0585  46.0820  46.7622
    47.0427  47.0553  47.3321  48.0176  48.1028  48.2975  48.7053  48.8096
    49.7095  49.8217  50.1006  50.2146  50.2466  50.8344  51.7799  52.3448
    53.3037  53.3361  53.3954  53.6369  54.1084  54.2691

          k = 0.0000 0.2533 0.1317 (  3669 PWs)   bands (ev):

   -25.0370 -25.0109 -24.9765 -24.9687  -3.6795  -3.5923  -3.0613  -2.7484
    -1.8095  -1.6199  -1.2762  -1.1264   2.5897   2.6965   2.8373   2.8623
     3.0421   3.0951   3.3930   3.4999   3.7027   3.8822   4.1942   4.2679
    15.5577  16.1853  16.2747  16.5132  16.5619  16.8213  16.9675  17.5798
    17.7081  17.9914  18.0945  18.5146  18.9729  19.6966  19.7621  19.9162
    20.1001  20.3658  20.5438  20.8410  21.1554  21.2142  21.5107  21.7673
    33.4746  33.6546  34.1859  34.3200  34.9530  35.3606  35.3981  35.8316
    36.1384  36.1389  36.4056  36.5975  37.1929  37.6454  38.2706  38.4307
    38.6808  38.9217  39.3327  39.7565  39.9527  40.6672  41.5650  41.7269
    41.8980  42.2878  42.6488  43.0574  43.1334  43.3798  43.4560  43.7232
    44.6970  44.8774  45.0176  45.3229  45.3932  45.6342  45.9143  46.1254
    46.5961  47.1424  47.3714  47.9065  48.4735  48.5068  48.8046  48.9924
    49.4161  49.9592  50.0444  50.3232  51.0678  51.3752  51.8037  51.8410
    52.3826  52.6272  52.6862  53.7220  54.1255  54.7735

          k = 0.0000 0.2533-0.2634 (  3666 PWs)   bands (ev):

   -25.0245 -25.0245 -24.9719 -24.9719  -3.6802  -3.6802  -2.8646  -2.8646
    -1.5920  -1.5920  -1.3282  -1.3282   2.6403   2.6403   2.8523   2.8523
     3.2181   3.2181   3.4477   3.4477   3.7032   3.7032   4.1491   4.1491
    15.9288  15.9288  16.4176  16.4176  16.7793  16.7792  17.4667  17.4667
    17.7863  17.7863  18.2746  18.2746  19.2989  19.2989  19.7661  19.7661
    19.8994  19.8994  20.9424  20.9424  21.0643  21.0643  21.6019  21.6019
    33.7583  33.7583  33.8718  33.8718  35.5764  35.5764  35.7082  35.7082
    36.0555  36.0555  36.8960  36.8960  37.3173  37.3173  38.1561  38.1561
    38.6796  38.6796  39.5139  39.5139  40.6908  40.6908  41.6381  41.6381
    41.8068  41.8068  42.7719  42.7719  43.7196  43.7196  44.2255  44.2255
    44.4322  44.4322  44.6171  44.6171  45.2736  45.2737  45.7933  45.7933
    46.8793  46.8793  47.4589  47.4589  48.1822  48.1822  48.9858  48.9858
    49.1221  49.1221  51.0485  51.0486  51.1114  51.1113  51.6386  51.6387
    52.3850  52.3850  53.5504  53.5501  54.2792  54.2790

          k =-0.5000 0.0000 0.0000 (  3722 PWs)   bands (ev):

   -25.0065 -25.0065 -24.9635 -24.9635  -3.6047  -3.6047  -2.8122  -2.8122
    -2.1495  -2.1496  -1.4478  -1.4478   2.5926   2.5926   2.8066   2.8066
     3.2975   3.2975   3.4545   3.4545   3.8019   3.8019   4.0755   4.0755
    15.0761  15.0761  16.5730  16.5730  16.6857  16.6857  17.4528  17.4528
    18.0305  18.0305  19.5468  19.5468  19.6322  19.6322  20.0273  20.0273
    20.4887  20.4887  21.0638  21.0638  21.5393  21.5393  22.2717  22.2717
    33.7417  33.7417  35.2018  35.2018  35.6097  35.6097  35.7479  35.7479
    36.0966  36.0966  36.1144  36.1144  36.9428  36.9428  38.1697  38.1697
    38.5191  38.5191  38.9434  38.9434  39.0685  39.0685  39.2445  39.2445
    40.5845  40.5845  41.6144  41.6144  42.5319  42.5319  43.7785  43.7785
    44.5371  44.5371  44.6701  44.6701  44.8709  44.8709  46.0990  46.0990
    46.4191  46.4191  47.9193  47.9193  48.8897  48.8897  49.0673  49.0673
    49.5615  49.5615  50.7996  50.7996  51.3841  51.3841  51.7744  51.7743
    52.5539  52.5539  53.4228  53.4224  53.4700  53.4698

          k =-0.5000 0.0000 0.1317 (  3710 PWs)   bands (ev):

   -25.0059 -25.0059 -24.9624 -24.9624  -3.6678  -3.6678  -2.7467  -2.7467
    -2.1104  -2.1104  -1.4574  -1.4574   2.6430   2.6430   2.7747   2.7747
     3.2206   3.2206   3.3423   3.3423   3.8543   3.8543   4.1461   4.1461
    15.1329  15.1329  16.5657  16.5657  16.9509  16.9509  17.6119  17.6119
    18.1207  18.1207  19.1374  19.1374  19.4209  19.4209  19.7130  19.7130
    20.7534  20.7534  21.1363  21.1363  21.5028  21.5028  22.2624  22.2624
    33.9092  33.9092  34.8875  34.8875  35.4387  35.4387  35.8100  35.8100
    36.3156  36.3156  36.5455  36.5455  36.9869  36.9869  37.9130  37.9130
    37.9836  37.9836  39.1213  39.1213  39.6009  39.6009  39.9629  39.9629
    40.6662  40.6662  41.4288  41.4288  42.6081  42.6081  43.0748  43.0748
    43.6805  43.6805  44.8257  44.8257  45.5314  45.5314  46.0907  46.0907
    46.6313  46.6313  47.5627  47.5627  47.6533  47.6533  48.7146  48.7146
    50.2337  50.2337  51.3804  51.3804  51.5273  51.5273  52.1175  52.1177
    52.2969  52.2966  53.1085  53.1086  53.9500  53.9494

          k =-0.5000 0.0000-0.2634 (  3680 PWs)   bands (ev):

   -25.0034 -25.0034 -24.9615 -24.9615  -3.7209  -3.7209  -2.6988  -2.6988
    -2.0551  -2.0551  -1.4746  -1.4747   2.6967   2.6967   2.7606   2.7606
     3.1048   3.1048   3.2910   3.2910   3.8768   3.8768   4.2162   4.2162
    15.1733  15.1733  16.7366  16.7366  17.0641  17.0641  17.9442  17.9442
    18.1471  18.1471  18.8615  18.8615  19.1096  19.1096  19.3362  19.3362
    20.9505  20.9505  21.2915  21.2915  21.3708  21.3708  22.2539  22.2539
    34.1171  34.1171  34.5212  34.5212  35.6416  35.6416  35.7184  35.7184
    36.6175  36.6175  36.7631  36.7631  37.0641  37.0641  37.5351  37.5351
    37.8667  37.8667  39.1558  39.1558  39.8111  39.8111  40.1659  40.1659
    41.4219  41.4219  41.4541  41.4541  42.6242  42.6242  43.1921  43.1921
    43.6146  43.6146  44.1376  44.1376  44.8278  44.8278  44.9635  44.9635
    46.6446  46.6446  47.2547  47.2547  49.0040  49.0040  49.2720  49.2720
    49.9305  49.9305  50.8041  50.8039  51.4147  51.4147  52.3480  52.3481
    53.1568  53.1563  53.3938  53.3935  53.7297  53.7288

          k =-0.5000 0.2533 0.0000 (  3686 PWs)   bands (ev):

   -24.9937 -24.9937 -24.9711 -24.9711  -3.3908  -3.3908  -3.0235  -3.0235
    -2.1687  -2.1688  -1.7966  -1.7966   2.8821   2.8821   2.9773   2.9773
     3.3522   3.3522   3.4653   3.4653   3.9792   3.9792   4.0966   4.0966
    15.5647  15.5647  15.8364  15.8364  16.9557  16.9557  17.9441  17.9441
    18.1909  18.1909  18.6285  18.6285  19.4837  19.4837  19.6003  19.6003
    20.6688  20.6688  20.8366  20.8366  21.3905  21.3905  21.6143  21.6143
    34.3050  34.3050  35.4293  35.4293  35.8937  35.8937  36.0265  36.0265
    36.5954  36.5954  36.6842  36.6842  37.8314  37.8314  38.1210  38.1210
    38.4974  38.4974  38.5326  38.5326  39.8617  39.8617  40.1334  40.1334
    41.5162  41.5162  41.9318  41.9318  42.4181  42.4181  43.0391  43.0391
    44.5752  44.5752  44.9202  44.9202  45.0225  45.0225  45.9742  45.9742
    46.3320  46.3320  47.4060  47.4060  47.9869  47.9869  48.8661  48.8661
    49.3914  49.3914  49.7005  49.7005  50.1810  50.1809  51.1552  51.1553
    51.6592  51.6593  52.0521  52.0520  53.5957  53.5955

          k =-0.5000 0.2533 0.1317 (  3692 PWs)   bands (ev):

   -24.9926 -24.9926 -24.9730 -24.9730  -3.4512  -3.4512  -3.0160  -3.0160
    -2.1071  -2.1071  -1.7572  -1.7572   2.8180   2.8180   2.9353   2.9353
     3.3053   3.3053   3.4297   3.4297   4.0507   4.0507   4.1338   4.1338
    15.7270  15.7270  16.0579  16.0579  17.0130  17.0130  17.5930  17.5930
    17.9789  17.9789  18.8139  18.8139  19.3840  19.3840  19.8413  19.8413
    20.5690  20.5690  20.9487  20.9487  21.1356  21.1356  21.5538  21.5538
    34.2805  34.2805  35.0924  35.0924  35.8794  35.8794  36.2170  36.2170
    36.7589  36.7589  37.0073  37.0073  37.7629  37.7629  38.0354  38.0354
    38.6041  38.6041  39.0095  39.0095  40.0777  40.0777  40.4388  40.4388
    41.3732  41.3732  41.8024  41.8024  42.4915  42.4915  42.8205  42.8205
    44.2765  44.2765  44.8621  44.8621  45.3392  45.3392  45.5506  45.5506
    46.2273  46.2273  46.9976  46.9976  47.8109  47.8109  48.3288  48.3288
    48.7207  48.7207  49.5241  49.5241  50.5775  50.5773  50.9459  50.9459
    51.9389  51.9390  52.4961  52.4961  53.2772  53.2770

          k =-0.5000 0.2533-0.2634 (  3704 PWs)   bands (ev):

   -24.9928 -24.9928 -24.9743 -24.9743  -3.5018  -3.5018  -3.0184  -3.0184
    -2.0397  -2.0397  -1.7229  -1.7229   2.7643   2.7643   2.8709   2.8709
     3.2890   3.2890   3.3942   3.3942   4.0981   4.0981   4.1701   4.1701
    15.8873  15.8873  16.4367  16.4366  17.0352  17.0352  17.3395  17.3395
    17.5958  17.5958  18.8507  18.8507  19.5743  19.5743  19.9428  19.9428
    20.5554  20.5554  20.7048  20.7048  21.1732  21.1732  21.4210  21.4210
    34.2181  34.2181  34.8934  34.8934  35.9284  35.9284  36.3061  36.3061
    36.8862  36.8861  37.2933  37.2933  37.8796  37.8796  38.0498  38.0498
    38.6279  38.6279  39.2132  39.2132  40.4078  40.4078  40.5984  40.5984
    41.2533  41.2533  41.8225  41.8225  42.3561  42.3561  43.5884  43.5884
    43.6988  43.6988  44.6482  44.6482  44.7184  44.7184  45.5019  45.5019
    45.8148  45.8148  47.2573  47.2574  47.5287  47.5287  48.0878  48.0878
    48.2295  48.2296  49.0382  49.0382  49.9803  49.9803  51.2970  51.2969
    52.6394  52.6394  52.6485  52.6482  53.4652  53.4652

     the Fermi energy is    47.7424 ev

!    total energy              =   -1676.92759459 Ry
     Harris-Foulkes estimate   =   -1676.92765632 Ry
     estimated scf accuracy    <       0.00007962 Ry

     The total energy is the sum of the following terms:

     one-electron contribution =     405.38189302 Ry
     hartree contribution      =      88.07416868 Ry
     xc contribution           =    -201.72812265 Ry
     ewald contribution        =   -1968.25825708 Ry
     smearing contrib. (-TS)   =      -0.39727657 Ry

     convergence has been achieved in   9 iterations

     Forces acting on atoms (Ry/au):

     atom    1 type  1   force =     0.00000000   -0.08058277   -0.08183384
     atom    2 type  1   force =     0.00000000    0.08058277    0.08183384
     atom    3 type  1   force =     0.00000000   -0.08058277    0.08183384
     atom    4 type  1   force =     0.00000000    0.08058277   -0.08183384
     atom    5 type  1   force =     0.00000000    0.16177431   -0.25626417
     atom    6 type  1   force =     0.00000000   -0.16177431    0.25626417
     atom    7 type  1   force =     0.00000000    0.16177431    0.25626417
     atom    8 type  1   force =     0.00000000   -0.16177431   -0.25626417
     atom    9 type  2   force =     0.00000000   -0.13614399   -0.05531511
     atom   10 type  2   force =     0.00000000    0.13614399    0.05531511
     atom   11 type  2   force =     0.00000000   -0.13614399    0.05531511
     atom   12 type  2   force =     0.00000000    0.13614399   -0.05531511

     Total force =     0.711695     Total SCF correction =     0.000000


     entering subroutine stress ...

          total   stress  (Ry/bohr**3)                   (kbar)     P= 6569.92
   0.04786183   0.00000000   0.00000000       7040.72      0.00      0.00
   0.00000000   0.04227601   0.00000000          0.00   6219.02      0.00
   0.00000000   0.00000000   0.04384648          0.00      0.00   6450.04


     BFGS Geometry Optimization

     number of scf cycles    =   1
     number of bfgs steps    =   0

     enthalpy new            =   -1676.9275945948 Ry

     new trust radius        =       0.5000000000 bohr
     new conv_thr            =       0.0001000000 Ry

     new unit-cell volume =   1084.51987 a.u.^3 (   160.70926 Ang^3 )

CELL_PARAMETERS (alat=  7.01510508)
   1.085136619   0.000000000   0.000000000
   0.000000000   1.414924573   0.000000000
   0.000000000   0.000000000   2.046054815

ATOMIC_POSITIONS (crystal)
Co       0.750000000   0.825779915   0.435298694
Co       0.250000000   0.174220085   0.564701306
Co       0.750000000   0.325779915   0.064701306
Co       0.250000000   0.674220085   0.935298694
Co       0.250000000   0.538332863   0.280975570
Co       0.750000000   0.461667137   0.719024430
Co       0.250000000   0.038332863   0.219024430
Co       0.750000000   0.961667137   0.780975570
Si       0.250000000   0.201804681   0.893304406
Si       0.750000000   0.798195319   0.106695594
Si       0.250000000   0.701804681   0.606695594
Si       0.750000000   0.298195319   0.393304406



     Writing output data file Prototype-La-oP12-Co2Si.save
     NEW-OLD atomic charge density approx. for the potential
     NEW k-points:
        k(    1) = (   0.0000000   0.0000000   0.0000000), wk =   0.0833333
        k(    2) = (   0.0000000   0.0000000   0.1221864), wk =   0.1666667
        k(    3) = (   0.0000000   0.0000000  -0.2443727), wk =   0.0833333
        k(    4) = (   0.0000000   0.2355838   0.0000000), wk =   0.1666667
        k(    5) = (   0.0000000   0.2355838   0.1221864), wk =   0.3333333
        k(    6) = (   0.0000000   0.2355838  -0.2443727), wk =   0.1666667
        k(    7) = (  -0.4607715   0.0000000   0.0000000), wk =   0.0833333
        k(    8) = (  -0.4607715   0.0000000   0.1221864), wk =   0.1666667
        k(    9) = (  -0.4607715   0.0000000  -0.2443727), wk =   0.0833333
        k(   10) = (  -0.4607715   0.2355838   0.0000000), wk =   0.1666667
        k(   11) = (  -0.4607715   0.2355838   0.1221864), wk =   0.3333333
        k(   12) = (  -0.4607715   0.2355838  -0.2443727), wk =   0.1666667

     total cpu time spent up to now is      116.5 secs

     Self-consistent Calculation

     iteration #  1     ecut=    40.00 Ry     beta=0.70
     CG style diagonalization
     c_bands:  2 eigenvalues not converged
     c_bands:  2 eigenvalues not converged
     ethr =  1.00E-06,  avg # of iterations = 20.5

     total cpu time spent up to now is      154.0 secs

     total energy              =   -1677.96099475 Ry
     Harris-Foulkes estimate   =   -1690.41232563 Ry
     estimated scf accuracy    <      16.37428589 Ry

     iteration #  2     ecut=    40.00 Ry     beta=0.70
     CG style diagonalization
     ethr =  8.90E-03,  avg # of iterations =  3.7

     total cpu time spent up to now is      161.2 secs

     total energy              =   -1679.00058250 Ry
     Harris-Foulkes estimate   =   -1685.84948810 Ry
     estimated scf accuracy    <      11.79379271 Ry

     iteration #  3     ecut=    40.00 Ry     beta=0.70
     CG style diagonalization
     ethr =  6.41E-03,  avg # of iterations =  3.5

     total cpu time spent up to now is      168.2 secs

     total energy              =   -1683.01093140 Ry
     Harris-Foulkes estimate   =   -1683.90381659 Ry
     estimated scf accuracy    <       1.92051211 Ry

     iteration #  4     ecut=    40.00 Ry     beta=0.70
     CG style diagonalization
     ethr =  1.04E-03,  avg # of iterations =  3.5

     total cpu time spent up to now is      175.0 secs

     total energy              =   -1683.27317338 Ry
     Harris-Foulkes estimate   =   -1683.34046420 Ry
     estimated scf accuracy    <       0.17985879 Ry

     iteration #  5     ecut=    40.00 Ry     beta=0.70
     CG style diagonalization
     ethr =  9.77E-05,  avg # of iterations =  3.6

     total cpu time spent up to now is      182.2 secs

     total energy              =   -1683.28863024 Ry
     Harris-Foulkes estimate   =   -1683.30286387 Ry
     estimated scf accuracy    <       0.02889799 Ry

     iteration #  6     ecut=    40.00 Ry     beta=0.70
     CG style diagonalization
     ethr =  1.57E-05,  avg # of iterations =  3.9

     total cpu time spent up to now is      190.0 secs

     total energy              =   -1683.29752809 Ry
     Harris-Foulkes estimate   =   -1683.29864457 Ry
     estimated scf accuracy    <       0.00349030 Ry

     iteration #  7     ecut=    40.00 Ry     beta=0.70
     CG style diagonalization
     c_bands:  1 eigenvalues not converged
     ethr =  1.90E-06,  avg # of iterations =  4.1

     total cpu time spent up to now is      198.2 secs

     total energy              =   -1683.29784361 Ry
     Harris-Foulkes estimate   =   -1683.29863727 Ry
     estimated scf accuracy    <       0.00188546 Ry

     iteration #  8     ecut=    40.00 Ry     beta=0.70
     CG style diagonalization
     ethr =  1.02E-06,  avg # of iterations =  3.3

     total cpu time spent up to now is      205.9 secs

     total energy              =   -1683.29804538 Ry
     Harris-Foulkes estimate   =   -1683.29810059 Ry
     estimated scf accuracy    <       0.00011470 Ry

     iteration #  9     ecut=    40.00 Ry     beta=0.70
     CG style diagonalization
     ethr =  6.23E-08,  avg # of iterations =  3.9

     total cpu time spent up to now is      212.7 secs

     End of self-consistent calculation

          k = 0.0000 0.0000 0.0000 (  3675 PWs)   bands (ev):

   -33.5189 -33.4971 -33.4953 -33.4950 -12.0098 -11.6563 -11.5928 -11.1291
   -11.0294 -10.7917 -10.7877 -10.7431  -5.1427  -5.0533  -5.0004  -4.9918
    -4.9436  -4.9134  -4.7526  -4.7009  -4.6930  -4.6411  -4.6292  -4.4851
     7.5261   8.0760   8.2049   8.7419   8.7577   8.7917   9.2377   9.3307
     9.7303   9.8266   9.8546  10.0206  10.2524  10.3767  10.7331  10.7419
    10.8923  10.9466  11.0259  11.4005  11.7382  11.9283  12.3320  12.5531
    26.0440  26.1079  26.4041  26.9026  27.1207  27.1335  27.1645  27.3675
    27.8144  28.0684  28.3474  28.7578  28.8918  28.9983  29.1797  29.8567
    29.9921  30.3638  30.5232  30.9263  31.1215  31.3471  32.4145  32.4852
    32.5257  32.7364  33.1437  33.2656  33.6568  33.7447  34.0794  34.3374
    34.5065  34.5882  34.6927  35.2340  35.6998  36.2854  36.3681  36.3873
    36.5179  36.8650  37.1470  37.5334  38.0631  38.2497  38.6649  38.8765
    39.8654  40.0394  40.3815  40.5119  40.5827  40.6079  40.9268  41.6827
    41.7192  41.7980  41.9709  42.0837  42.5753  43.2965

          k = 0.0000 0.0000 0.1222 (  3675 PWs)   bands (ev):

   -33.5171 -33.5022 -33.4972 -33.4903 -11.9928 -11.8101 -11.4114 -11.1544
   -11.0163 -10.8543 -10.7692 -10.7285  -5.1204  -5.0686  -4.9848  -4.9573
    -4.9510  -4.8956  -4.7900  -4.7055  -4.7053  -4.6725  -4.6060  -4.5039
     7.5796   7.9663   8.3503   8.7213   8.7429   8.9246   9.0756   9.4704
     9.6328   9.9647   9.9812  10.0120  10.2403  10.4158  10.4549  10.6907
    10.7233  11.2003  11.2507  11.2519  11.6911  11.7463  12.3545  12.5138
    25.9914  26.1401  26.5918  26.6441  26.7278  27.1588  27.4706  27.5663
    27.8333  28.0424  28.7166  28.8987  28.9043  29.3679  29.4607  29.8931
    30.0131  30.2172  30.4197  30.5702  30.6661  31.3368  32.3800  32.3813
    32.7397  33.0372  33.2267  33.2451  33.7595  34.0056  34.1643  34.1677
    34.2715  34.2994  34.8372  35.2728  35.4387  35.8198  36.2164  36.2705
    36.5676  36.9378  37.5787  37.7740  37.7898  38.3983  38.4343  38.6399
    38.7971  39.1860  39.9201  40.2286  40.4712  40.8229  41.4924  41.5328
    41.8902  42.2852  42.5142  42.5356  42.7677  43.6188

          k = 0.0000 0.0000-0.2444 (  3690 PWs)   bands (ev):

   -33.5110 -33.5110 -33.4986 -33.4986 -11.9316 -11.9316 -11.2409 -11.2409
   -10.9569 -10.9569 -10.7382 -10.7382  -5.0953  -5.0953  -4.9660  -4.9660
    -4.8594  -4.8594  -4.8144  -4.8144  -4.7147  -4.7147  -4.5593  -4.5593
     7.7353   7.7353   8.7174   8.7174   8.7323   8.7323   9.2575   9.2575
     9.7970   9.7970  10.1197  10.1197  10.2346  10.2346  10.6313  10.6313
    10.8274  10.8274  11.4127  11.4127  11.5322  11.5322  12.4247  12.4247
    26.1410  26.1410  26.2385  26.2385  27.0699  27.0699  27.8606  27.8606
    28.4589  28.4589  28.4770  28.4770  29.2138  29.2138  29.5434  29.5434
    30.0516  30.0516  30.1739  30.1739  31.4239  31.4239  32.0850  32.0850
    33.1896  33.1896  33.3794  33.3794  33.7967  33.7967  34.1755  34.1755
    34.6207  34.6207  34.8433  34.8433  35.0627  35.0627  36.0627  36.0627
    37.0393  37.0393  37.2842  37.2842  37.7470  37.7470  38.6357  38.6357
    38.9126  38.9126  40.0196  40.0196  40.6377  40.6377  41.2418  41.2418
    42.1550  42.1550  43.2749  43.2749  43.3516  43.3516

          k = 0.0000 0.2356 0.0000 (  3664 PWs)   bands (ev):

   -33.5174 -33.5044 -33.4895 -33.4814 -11.9084 -11.6950 -11.5678 -11.3597
   -11.0561 -10.9075 -10.6991 -10.6500  -5.1000  -5.0458  -5.0044  -4.9890
    -4.9741  -4.9436  -4.7317  -4.6830  -4.5948  -4.5495  -4.5158  -4.5030
     7.9566   8.5888   8.6200   8.6867   8.7478   8.7574   8.8525   9.1643
     9.4122   9.5508   9.7494   9.9687  10.0816  10.7248  10.7524  10.9972
    11.0107  11.1085  11.1676  11.2570  11.4538  11.4822  11.7603  11.7811
    26.6843  26.7662  26.8784  27.0403  27.5451  27.7367  27.8251  28.1623
    28.2637  28.3816  28.5951  28.7087  28.7171  29.4260  29.6003  30.0783
    30.1433  30.4298  30.4883  30.5114  30.5462  31.4529  31.7725  32.1334
    32.1607  32.5844  33.3483  33.4455  33.8421  33.8979  33.9107  34.0589
    34.4029  35.1743  35.4312  35.5394  35.5720  35.5800  36.2024  36.5558
    36.7328  36.8669  37.2215  37.3642  37.5062  37.8280  38.1525  38.2576
    39.0008  39.1973  39.2702  39.7621  39.8294  39.8707  40.7787  40.8206
    41.5541  41.5745  42.0835  42.4729  42.6555  43.0487

          k = 0.0000 0.2356 0.1222 (  3669 PWs)   bands (ev):

   -33.5146 -33.5029 -33.4915 -33.4906 -11.8983 -11.7727 -11.5018 -11.3854
   -10.9997 -10.8614 -10.7452 -10.6776  -5.0847  -5.0564  -4.9987  -4.9781
    -4.9478  -4.9200  -4.7437  -4.6945  -4.6361  -4.5856  -4.5253  -4.4971
     8.0408   8.4502   8.6090   8.7091   8.7793   8.7951   8.9953   9.2881
     9.3952   9.6797   9.6836   9.8578  10.1317  10.6763  10.7346  10.8540
    10.8918  10.9607  11.1827  11.3454  11.4451  11.5226  11.7076  11.8178
    26.6351  26.6780  27.0263  27.1022  27.4129  27.7813  27.9645  28.1625
    28.2862  28.5420  28.5580  28.5958  29.0359  29.3759  29.7768  29.8839
    29.9707  30.3168  30.3845  30.5706  30.9729  31.5851  32.1634  32.4278
    32.4703  32.6672  32.9507  33.2865  33.4150  33.5896  33.8989  34.1492
    34.8387  34.9818  35.0481  35.2533  35.4793  35.5538  35.9026  36.2389
    36.4001  36.6185  37.2452  37.2844  38.0675  38.1763  38.2252  38.3681
    38.6754  38.7524  39.3691  39.3996  39.9858  40.0991  40.5133  40.9664
    41.0977  41.4008  41.7203  42.2829  42.6232  43.0766

          k = 0.0000 0.2356-0.2444 (  3666 PWs)   bands (ev):

   -33.5065 -33.5065 -33.4923 -33.4923 -11.8570 -11.8570 -11.4349 -11.4349
   -10.8732 -10.8732 -10.7546 -10.7546  -5.0706  -5.0706  -4.9882  -4.9882
    -4.8835  -4.8835  -4.7508  -4.7508  -4.6385  -4.6385  -4.5051  -4.5051
     8.2368   8.2368   8.6787   8.6787   8.8131   8.8131   9.2424   9.2424
     9.5011   9.5011   9.8295   9.8295  10.3667  10.3667  10.7376  10.7376
    10.7650  10.7650  11.3426  11.3426  11.4712  11.4712  11.7649  11.7649
    26.6608  26.6608  26.8722  26.8722  27.9258  27.9258  28.2293  28.2293
    28.2582  28.2582  28.7578  28.7578  29.0352  29.0352  29.9491  29.9491
    30.0207  30.0207  30.4291  30.4291  31.8003  31.8003  32.1263  32.1263
    32.6016  32.6016  32.7278  32.7278  33.9244  33.9244  34.3978  34.3978
    34.6254  34.6254  34.8497  34.8497  35.1450  35.1450  35.8810  35.8810
    36.8824  36.8824  36.9474  36.9474  37.7163  37.7163  38.1044  38.1044
    38.4328  38.4328  39.9467  39.9467  40.2838  40.2838  40.4911  40.4911
    41.2036  41.2036  42.2862  42.2862  42.4986  42.4986

          k =-0.4608 0.0000 0.0000 (  3722 PWs)   bands (ev):

   -33.5161 -33.5161 -33.5041 -33.5041 -11.7510 -11.7510 -11.3946 -11.3946
   -11.1448 -11.1448 -10.7477 -10.7477  -5.0783  -5.0783  -5.0304  -5.0304
    -4.7936  -4.7936  -4.7652  -4.7652  -4.7258  -4.7258  -4.5493  -4.5493
     7.7034   7.7034   8.4766   8.4766   8.6876   8.6876   9.2561   9.2561
     9.4070   9.4070  10.3893  10.3893  10.5164  10.5164  10.7970  10.7970
    11.1837  11.1837  11.4897  11.4897  11.7062  11.7062  12.2759  12.2759
    26.5333  26.5333  27.7401  27.7401  27.8612  27.8612  27.9833  27.9833
    28.1877  28.1877  28.2535  28.2535  28.5553  28.5553  29.6335  29.6335
    30.1873  30.1873  30.3257  30.3257  30.6549  30.6549  30.8986  30.8986
    32.1346  32.1346  32.8601  32.8601  33.1650  33.1650  34.2827  34.2827
    35.2181  35.2181  35.3319  35.3319  35.7010  35.7010  36.6479  36.6479
    36.7828  36.7828  37.1160  37.1160  37.6206  37.6206  38.2766  38.2766
    38.5672  38.5672  39.9536  39.9536  40.5119  40.5119  40.9495  40.9495
    41.2699  41.2699  42.3845  42.3846  43.0250  43.0251

          k =-0.4608 0.0000 0.1222 (  3710 PWs)   bands (ev):

   -33.5140 -33.5140 -33.5000 -33.5000 -11.7692 -11.7692 -11.3829 -11.3829
   -11.1344 -11.1344 -10.7464 -10.7464  -5.0680  -5.0680  -5.0329  -5.0329
    -4.8722  -4.8722  -4.7363  -4.7363  -4.6675  -4.6675  -4.5564  -4.5564
     7.7054   7.7054   8.4575   8.4575   8.8842   8.8842   9.2142   9.2142
     9.5743   9.5743  10.2078  10.2078  10.3466  10.3466  10.7025  10.7025
    11.3287  11.3287  11.4859  11.4859  11.6994  11.6994  12.2711  12.2711
    26.6734  26.6734  27.4308  27.4308  27.7974  27.7974  27.9950  27.9950
    28.2516  28.2516  28.6068  28.6068  28.7524  28.7524  29.4142  29.4142
    29.5873  29.5873  30.5967  30.5967  31.1010  31.1010  31.3802  31.3802
    32.0532  32.0532  32.8024  32.8024  33.6274  33.6274  33.8389  33.8389
    34.5193  34.5193  35.0440  35.0440  35.8964  35.8964  36.1002  36.1002
    36.4519  36.4519  36.8765  36.8765  37.6684  37.6684  38.6646  38.6646
    39.3609  39.3609  39.9435  39.9435  40.7629  40.7630  40.8975  40.8976
    41.1629  41.1629  42.2763  42.2766  42.5150  42.5154

          k =-0.4608 0.0000-0.2444 (  3680 PWs)   bands (ev):

   -33.5039 -33.5039 -33.4959 -33.4959 -11.7850 -11.7850 -11.3740 -11.3740
   -11.1227 -11.1227 -10.7454 -10.7454  -5.0599  -5.0599  -5.0156  -5.0156
    -4.9202  -4.9202  -4.7319  -4.7319  -4.6084  -4.6084  -4.5620  -4.5620
     7.6967   7.6967   8.5061   8.5061   8.9692   8.9692   9.4435   9.4435
     9.5588   9.5588  10.0710  10.0710  10.1863  10.1863  10.5483  10.5483
    11.4389  11.4389  11.5775  11.5775  11.6211  11.6211  12.2735  12.2735
    26.8199  26.8199  27.2072  27.2072  27.8359  27.8359  27.9535  27.9535
    28.4980  28.4980  28.6937  28.6937  29.0363  29.0363  29.1040  29.1040
    29.3209  29.3209  30.7119  30.7119  31.1261  31.1261  31.8002  31.8002
    32.6952  32.6952  32.7069  32.7069  33.4769  33.4769  34.0248  34.0248
    34.2511  34.2511  34.4873  34.4873  34.9511  34.9511  35.7943  35.7943
    36.3825  36.3825  36.6718  36.6718  38.5460  38.5460  38.6398  38.6398
    39.5401  39.5401  40.2509  40.2509  40.7166  40.7166  40.9663  40.9663
    41.2732  41.2732  41.7112  41.7113  42.5871  42.5874

          k =-0.4608 0.2356 0.0000 (  3686 PWs)   bands (ev):

   -33.5077 -33.5077 -33.4972 -33.4972 -11.6322 -11.6322 -11.4622 -11.4622
   -11.1167 -11.1167 -10.9112 -10.9112  -5.0012  -5.0012  -4.9811  -4.9811
    -4.7754  -4.7754  -4.7732  -4.7732  -4.6282  -4.6282  -4.5447  -4.5447
     8.0423   8.0423   8.2486   8.2486   8.7519   8.7519   9.5745   9.5745
     9.5759   9.5759  10.0071  10.0071  10.4420  10.4420  10.5045  10.5045
    11.3071  11.3071  11.3314  11.3314  11.6459  11.6459  11.7924  11.7924
    27.1089  27.1089  27.8799  27.8799  28.0060  28.0060  28.2403  28.2403
    28.5343  28.5343  28.6979  28.6979  29.4058  29.4058  29.6743  29.6743
    30.0041  30.0041  30.2611  30.2611  31.2267  31.2267  31.3615  31.3615
    32.6819  32.6819  32.7165  32.7165  33.3334  33.3334  34.0372  34.0372
    34.7315  34.7315  35.0920  35.0920  35.3740  35.3740  35.8820  35.8820
    36.1564  36.1564  37.1478  37.1478  37.5262  37.5262  38.3064  38.3064
    38.7240  38.7240  39.3134  39.3134  39.3468  39.3468  40.2921  40.2922
    40.7563  40.7563  41.1562  41.1562  41.5495  41.5495

          k =-0.4608 0.2356 0.1222 (  3692 PWs)   bands (ev):

   -33.5060 -33.5060 -33.5014 -33.5014 -11.6492 -11.6492 -11.4625 -11.4625
   -11.1025 -11.1025 -10.9031 -10.9031  -5.0219  -5.0219  -4.9888  -4.9888
    -4.8184  -4.8184  -4.7273  -4.7273  -4.6261  -4.6261  -4.5395  -4.5395
     8.1021   8.1021   8.3582   8.3582   8.8437   8.8437   9.2141   9.2141
     9.5531   9.5531  10.0580  10.0580  10.4453  10.4453  10.7207  10.7207
    11.2184  11.2184  11.3782  11.3782  11.5285  11.5285  11.7627  11.7627
    27.1400  27.1400  27.7214  27.7214  27.9729  27.9729  28.2888  28.2888
    28.6560  28.6560  28.8125  28.8125  29.3937  29.3937  29.5530  29.5530
    30.1475  30.1475  30.3745  30.3745  31.4689  31.4689  31.6821  31.6821
    32.6612  32.6612  32.8608  32.8608  33.3291  33.3291  33.5722  33.5722
    34.6291  34.6291  34.9432  34.9432  35.1438  35.1438  35.6201  35.6201
    36.3896  36.3896  36.9692  36.9692  37.3467  37.3467  38.0298  38.0298
    38.3306  38.3306  38.9181  38.9181  39.7318  39.7318  40.2645  40.2645
    41.0333  41.0333  41.4909  41.4909  41.8343  41.8343

          k =-0.4608 0.2356-0.2444 (  3704 PWs)   bands (ev):

   -33.5092 -33.5092 -33.5040 -33.5040 -11.6646 -11.6646 -11.4640 -11.4640
   -11.0886 -11.0886 -10.8957 -10.8957  -5.0408  -5.0408  -4.9951  -4.9951
    -4.8349  -4.8349  -4.7202  -4.7202  -4.6160  -4.6160  -4.5436  -4.5436
     8.1449   8.1449   8.5794   8.5794   8.8902   8.8902   9.0915   9.0915
     9.2374   9.2374  10.0909  10.0909  10.5889  10.5889  10.8652  10.8652
    11.1893  11.1893  11.2089  11.2089  11.5525  11.5525  11.6952  11.6952
    27.1320  27.1320  27.6103  27.6103  27.9621  27.9621  28.3843  28.3844
    28.7262  28.7262  28.9671  28.9671  29.3087  29.3087  29.5104  29.5104
    30.3244  30.3244  30.3816  30.3816  31.9255  31.9255  32.0803  32.0803
    32.4096  32.4096  32.8459  32.8459  33.1715  33.1715  33.8163  33.8163
    33.8359  33.8359  34.8416  34.8416  35.0897  35.0897  35.9006  35.9006
    36.0313  36.0313  37.0289  37.0289  37.2507  37.2507  37.6739  37.6739
    37.9144  37.9144  38.6004  38.6004  39.4518  39.4518  40.5895  40.5895
    41.4261  41.4261  41.7782  41.7782  42.4765  42.4765

     the Fermi energy is    37.4044 ev

!    total energy              =   -1683.29808921 Ry
     Harris-Foulkes estimate   =   -1683.29809627 Ry
     estimated scf accuracy    <       0.00000770 Ry

     The total energy is the sum of the following terms:

     one-electron contribution =     216.88489909 Ry
     hartree contribution      =     118.58494077 Ry
     xc contribution           =    -194.40886606 Ry
     ewald contribution        =   -1823.87304413 Ry
     smearing contrib. (-TS)   =      -0.48601889 Ry

     convergence has been achieved in   9 iterations

     Forces acting on atoms (Ry/au):

     atom    1 type  1   force =     0.00000000   -0.05532969   -0.04312111
     atom    2 type  1   force =     0.00000000    0.05532969    0.04312111
     atom    3 type  1   force =     0.00000000   -0.05532969    0.04312111
     atom    4 type  1   force =     0.00000000    0.05532969   -0.04312111
     atom    5 type  1   force =     0.00000000    0.09319789   -0.13715388
     atom    6 type  1   force =     0.00000000   -0.09319789    0.13715388
     atom    7 type  1   force =     0.00000000    0.09319789    0.13715388
     atom    8 type  1   force =     0.00000000   -0.09319789   -0.13715388
     atom    9 type  2   force =     0.00000000   -0.06679825   -0.02913660
     atom   10 type  2   force =     0.00000000    0.06679825    0.02913660
     atom   11 type  2   force =     0.00000000   -0.06679825    0.02913660
     atom   12 type  2   force =     0.00000000    0.06679825   -0.02913660

     Total force =     0.388478     Total SCF correction =     0.000000


     entering subroutine stress ...

          total   stress  (Ry/bohr**3)                   (kbar)     P= 2363.78
   0.01730442   0.00000000   0.00000000       2545.57      0.00      0.00
   0.00000000   0.01508031   0.00000000          0.00   2218.39      0.00
   0.00000000   0.00000000   0.01582115          0.00      0.00   2327.37


     number of scf cycles    =   2
     number of bfgs steps    =   1

     enthalpy old            =   -1676.9275945948 Ry
     enthalpy new            =   -1683.2980892133 Ry

     CASE: enthalpy_new < enthalpy_old

     small trust_radius: resetting bfgs history

     new trust radius        =       2.8493502586 bohr
     new conv_thr            =       0.0001000000 Ry

     new unit-cell volume =   2985.66341 a.u.^3 (   442.42966 Ang^3 )

CELL_PARAMETERS (alat=  7.01510508)
   1.554578152   0.000000000   0.000000000
   0.000000000   1.948362097   0.000000000
   0.000000000   0.000000000   2.855328440

ATOMIC_POSITIONS (crystal)
Co       0.750000000   0.820205609   0.432294428
Co       0.250000000   0.179794391   0.567705572
Co       0.750000000   0.320205609   0.067705572
Co       0.250000000   0.679794391   0.932294428
Co       0.250000000   0.547722279   0.271419999
Co       0.750000000   0.452277721   0.728580001
Co       0.250000000   0.047722279   0.228580001
Co       0.750000000   0.952277721   0.771419999
Si       0.250000000   0.195074951   0.891274446
Si       0.750000000   0.804925049   0.108725554
Si       0.250000000   0.695074951   0.608725554
Si       0.750000000   0.304925049   0.391274446



     Writing output data file Prototype-La-oP12-Co2Si.save
     NEW-OLD atomic charge density approx. for the potential
     NEW k-points:
        k(    1) = (   0.0000000   0.0000000   0.0000000), wk =   0.0833333
        k(    2) = (   0.0000000   0.0000000   0.0875556), wk =   0.1666667
        k(    3) = (   0.0000000   0.0000000  -0.1751112), wk =   0.0833333
        k(    4) = (   0.0000000   0.1710839   0.0000000), wk =   0.1666667
        k(    5) = (   0.0000000   0.1710839   0.0875556), wk =   0.3333333
        k(    6) = (   0.0000000   0.1710839  -0.1751112), wk =   0.1666667
        k(    7) = (  -0.3216307   0.0000000   0.0000000), wk =   0.0833333
        k(    8) = (  -0.3216307   0.0000000   0.0875556), wk =   0.1666667
        k(    9) = (  -0.3216307   0.0000000  -0.1751112), wk =   0.0833333
        k(   10) = (  -0.3216307   0.1710839   0.0000000), wk =   0.1666667
        k(   11) = (  -0.3216307   0.1710839   0.0875556), wk =   0.3333333
        k(   12) = (  -0.3216307   0.1710839  -0.1751112), wk =   0.1666667

     total cpu time spent up to now is      216.5 secs

     Self-consistent Calculation

     iteration #  1     ecut=    40.00 Ry     beta=0.70
     CG style diagonalization
     c_bands:  3 eigenvalues not converged
     c_bands:  2 eigenvalues not converged
     ethr =  1.00E-06,  avg # of iterations = 29.2

     total cpu time spent up to now is      266.7 secs

     total energy              =   -1594.86280686 Ry
     Harris-Foulkes estimate   =   -1827.55523886 Ry
     estimated scf accuracy    <     307.84549297 Ry

     iteration #  2     ecut=    40.00 Ry     beta=0.70
     CG style diagonalization
     ethr =  1.00E-02,  avg # of iterations =  6.5

     total cpu time spent up to now is      280.3 secs

     total energy              =   -1632.64450053 Ry
     Harris-Foulkes estimate   =   -1700.15938614 Ry
     estimated scf accuracy    <     101.47575777 Ry

     iteration #  3     ecut=    40.00 Ry     beta=0.70
     CG style diagonalization
     ethr =  1.00E-02,  avg # of iterations =  6.5

     total cpu time spent up to now is      293.2 secs

     total energy              =   -1668.38112574 Ry
     Harris-Foulkes estimate   =   -1705.61811273 Ry
     estimated scf accuracy    <      98.44067630 Ry

     iteration #  4     ecut=    40.00 Ry     beta=0.70
     CG style diagonalization
     ethr =  1.00E-02,  avg # of iterations =  4.0

     total cpu time spent up to now is      300.3 secs

     total energy              =   -1674.25151148 Ry
     Harris-Foulkes estimate   =   -1675.54791109 Ry
     estimated scf accuracy    <      17.90418679 Ry

     iteration #  5     ecut=    40.00 Ry     beta=0.70
     CG style diagonalization
     ethr =  9.73E-03,  avg # of iterations =  3.3

     total cpu time spent up to now is      307.0 secs

     total energy              =   -1673.70165009 Ry
     Harris-Foulkes estimate   =   -1674.72720793 Ry
     estimated scf accuracy    <      12.55563749 Ry

     iteration #  6     ecut=    40.00 Ry     beta=0.70
     CG style diagonalization
     ethr =  6.82E-03,  avg # of iterations =  3.1

     total cpu time spent up to now is      313.3 secs

     total energy              =   -1671.71116341 Ry
     Harris-Foulkes estimate   =   -1674.10915550 Ry
     estimated scf accuracy    <      11.85165575 Ry

     iteration #  7     ecut=    40.00 Ry     beta=0.70
     CG style diagonalization
     ethr =  6.44E-03,  avg # of iterations =  3.3

     total cpu time spent up to now is      320.1 secs

     total energy              =   -1672.06363940 Ry
     Harris-Foulkes estimate   =   -1672.55692863 Ry
     estimated scf accuracy    <       2.18043406 Ry

     iteration #  8     ecut=    40.00 Ry     beta=0.70
     CG style diagonalization
     c_bands:  1 eigenvalues not converged
     c_bands:  2 eigenvalues not converged
     ethr =  1.19E-03,  avg # of iterations =  5.0

     total cpu time spent up to now is      330.3 secs

     total energy              =   -1672.44699018 Ry
     Harris-Foulkes estimate   =   -1673.50565652 Ry
     estimated scf accuracy    <       8.21060443 Ry

     iteration #  9     ecut=    40.00 Ry     beta=0.70
     CG style diagonalization
     c_bands:  1 eigenvalues not converged
     ethr =  1.19E-03,  avg # of iterations =  3.1

     total cpu time spent up to now is      336.3 secs

     total energy              =   -1672.62702412 Ry
     Harris-Foulkes estimate   =   -1672.86581427 Ry
     estimated scf accuracy    <       0.94417567 Ry

     iteration # 10     ecut=    40.00 Ry     beta=0.70
     CG style diagonalization
     ethr =  5.13E-04,  avg # of iterations =  3.9

     total cpu time spent up to now is      344.3 secs

     total energy              =   -1672.81088850 Ry
     Harris-Foulkes estimate   =   -1672.86756996 Ry
     estimated scf accuracy    <       0.17384689 Ry

     iteration # 11     ecut=    40.00 Ry     beta=0.70
     CG style diagonalization
     c_bands:  1 eigenvalues not converged
     c_bands:  1 eigenvalues not converged
     c_bands:  1 eigenvalues not converged
     c_bands:  2 eigenvalues not converged
     c_bands:  2 eigenvalues not converged
     c_bands:  2 eigenvalues not converged
     c_bands:  2 eigenvalues not converged
     ethr =  9.45E-05,  avg # of iterations =  4.4

     total cpu time spent up to now is      352.4 secs

     total energy              =   -1672.87411686 Ry
     Harris-Foulkes estimate   =   -1672.92921183 Ry
     estimated scf accuracy    <       0.76762744 Ry

     iteration # 12     ecut=    40.00 Ry     beta=0.70
     CG style diagonalization
     c_bands:  1 eigenvalues not converged
     ethr =  9.45E-05,  avg # of iterations =  3.1

     total cpu time spent up to now is      357.8 secs

     total energy              =   -1672.84730385 Ry
     Harris-Foulkes estimate   =   -1672.89546207 Ry
     estimated scf accuracy    <       0.35684093 Ry

     iteration # 13     ecut=    40.00 Ry     beta=0.70
     CG style diagonalization
     ethr =  9.45E-05,  avg # of iterations =  3.2

     total cpu time spent up to now is      363.8 secs

     total energy              =   -1672.87134430 Ry
     Harris-Foulkes estimate   =   -1672.87285606 Ry
     estimated scf accuracy    <       0.00558351 Ry

     iteration # 14     ecut=    40.00 Ry     beta=0.70
     CG style diagonalization
     c_bands:  2 eigenvalues not converged
     c_bands:  4 eigenvalues not converged
     c_bands:  1 eigenvalues not converged
     c_bands:  1 eigenvalues not converged
     c_bands:  1 eigenvalues not converged
     c_bands:  1 eigenvalues not converged
     ethr =  3.03E-06,  avg # of iterations =  5.3

     total cpu time spent up to now is      375.0 secs

     total energy              =   -1672.87704468 Ry
     Harris-Foulkes estimate   =   -1672.87828470 Ry
     estimated scf accuracy    <       0.00829258 Ry

     iteration # 15     ecut=    40.00 Ry     beta=0.70
     CG style diagonalization
     c_bands:  1 eigenvalues not converged
     ethr =  3.03E-06,  avg # of iterations =  3.1

     total cpu time spent up to now is      381.2 secs

     total energy              =   -1672.87776904 Ry
     Harris-Foulkes estimate   =   -1672.87786958 Ry
     estimated scf accuracy    <       0.00044952 Ry

     iteration # 16     ecut=    40.00 Ry     beta=0.70
     CG style diagonalization
     c_bands:  1 eigenvalues not converged
     c_bands:  1 eigenvalues not converged
     c_bands:  1 eigenvalues not converged
     ethr =  2.44E-07,  avg # of iterations =  5.0

     total cpu time spent up to now is      390.9 secs

     total energy              =   -1672.87814271 Ry
     Harris-Foulkes estimate   =   -1672.87834961 Ry
     estimated scf accuracy    <       0.00376808 Ry

     iteration # 17     ecut=    40.00 Ry     beta=0.70
     CG style diagonalization
     c_bands:  1 eigenvalues not converged
     c_bands:  1 eigenvalues not converged
     c_bands:  1 eigenvalues not converged
     ethr =  2.44E-07,  avg # of iterations =  3.1

     total cpu time spent up to now is      396.3 secs

     total energy              =   -1672.87803478 Ry
     Harris-Foulkes estimate   =   -1672.87824506 Ry
     estimated scf accuracy    <       0.00174082 Ry

     iteration # 18     ecut=    40.00 Ry     beta=0.70
     CG style diagonalization
     c_bands:  1 eigenvalues not converged
     c_bands:  1 eigenvalues not converged
     ethr =  2.44E-07,  avg # of iterations =  3.4

     total cpu time spent up to now is      403.3 secs

     total energy              =   -1672.87809607 Ry
     Harris-Foulkes estimate   =   -1672.87812433 Ry
     estimated scf accuracy    <       0.00011373 Ry

     iteration # 19     ecut=    40.00 Ry     beta=0.70
     CG style diagonalization
     c_bands:  1 eigenvalues not converged
     c_bands:  1 eigenvalues not converged
     ethr =  6.18E-08,  avg # of iterations =  4.2

     total cpu time spent up to now is      410.7 secs

     End of self-consistent calculation

          k = 0.0000 0.0000 0.0000 (  3675 PWs)   bands (ev):

   -52.6445 -52.6444 -52.6273 -52.6177 -36.5030 -36.4594 -36.4551 -36.4052
   -36.3836 -36.3538 -36.2892 -36.2654 -27.3155 -27.3141 -27.3134 -27.3131
   -27.3059 -27.3041 -27.3034 -27.3033 -27.2638 -27.2636 -27.2634 -27.2615
   -14.7127 -14.6652 -14.6565 -14.6485 -14.6481 -14.6041 -14.5992 -14.5820
   -14.5599 -14.5550 -14.5540 -14.5468 -14.5396 -14.5188 -14.5148 -14.4972
   -14.4931 -14.4659 -14.4544 -14.4490 -14.4222 -14.4090 -14.4033 -14.4009
     6.9298   7.4166   7.5624   7.6042   7.6464   7.6635   7.6774   7.6885
     7.7385   7.7633   7.7749   7.8263   7.9046   7.9136   7.9240   8.0640
     8.0847   8.1231   8.2227   8.2437   8.3185   8.3238   8.5154   8.8461
     8.8982   9.1562   9.1807   9.3922   9.4540   9.6065   9.6399   9.7028
     9.8048   9.8511   9.8554   9.9997  10.0022  10.1550  10.2321  10.2342
    10.4048  10.5164  10.5804  10.7851  10.8079  10.8909  10.9018  11.1923
    11.2480  11.2630  11.2711  11.2738  11.3577  11.4022  11.5962  11.6048
    11.6539  11.7751  11.7777  11.7879  11.9788  12.0105

          k = 0.0000 0.0000 0.0876 (  3675 PWs)   bands (ev):

   -52.6779 -52.6695 -52.6125 -52.5721 -36.4997 -36.4855 -36.4666 -36.3914
   -36.3544 -36.3378 -36.3263 -36.2433 -27.3153 -27.3147 -27.3133 -27.3132
   -27.3051 -27.3043 -27.3035 -27.3033 -27.2654 -27.2643 -27.2630 -27.2616
   -14.7148 -14.6718 -14.6603 -14.6404 -14.6370 -14.6193 -14.6123 -14.5980
   -14.5722 -14.5654 -14.5587 -14.5352 -14.5351 -14.5113 -14.5020 -14.4983
   -14.4730 -14.4652 -14.4451 -14.4451 -14.4331 -14.4230 -14.3967 -14.3945
     7.0454   7.4524   7.5560   7.5896   7.6309   7.6543   7.6762   7.6884
     7.6993   7.7634   7.7787   7.8988   7.9068   7.9108   7.9435   7.9524
     8.0344   8.0689   8.1664   8.2189   8.2224   8.2998   8.6598   8.8880
     8.9670   9.2294   9.2421   9.3481   9.4678   9.6674   9.7140   9.7395
     9.7712   9.8406   9.8937   9.9748   9.9789  10.0229  10.1506  10.2101
    10.2880  10.3306  10.4739  10.7210  10.9413  10.9719  11.0097  11.0639
    11.1593  11.2001  11.3117  11.3732  11.3776  11.4926  11.4982  11.5589
    11.5999  11.6244  11.8698  11.8778  12.0222  12.0627

          k = 0.0000 0.0000-0.1751 (  3690 PWs)   bands (ev):

   -52.6833 -52.6833 -52.6444 -52.6444 -36.5281 -36.5281 -36.4276 -36.4276
   -36.3762 -36.3762 -36.2875 -36.2875 -27.3152 -27.3152 -27.3132 -27.3132
   -27.3054 -27.3054 -27.3042 -27.3042 -27.2663 -27.2663 -27.2633 -27.2633
   -14.7162 -14.7162 -14.6456 -14.6456 -14.6217 -14.6217 -14.6162 -14.6162
   -14.5806 -14.5806 -14.5516 -14.5516 -14.5132 -14.5132 -14.4970 -14.4970
   -14.4915 -14.4915 -14.4731 -14.4731 -14.4467 -14.4467 -14.3917 -14.3917
     7.3242   7.3242   7.5106   7.5106   7.6372   7.6372   7.6526   7.6526
     7.8027   7.8027   7.8034   7.8034   7.8420   7.8420   7.9583   7.9583
     8.0293   8.0293   8.1698   8.1698   8.2420   8.2420   8.7666   8.7666
     9.1958   9.1958   9.3906   9.3906   9.5499   9.5499   9.7372   9.7372
     9.8357   9.8357   9.8723   9.8723   9.9903   9.9903  10.0976  10.0976
    10.1870  10.1870  10.5956  10.5956  10.9738  10.9738  10.9951  10.9951
    11.1466  11.1466  11.2754  11.2754  11.4590  11.4590  11.5502  11.5502
    11.5970  11.5970  11.9903  11.9903  11.9999  11.9999

          k = 0.0000 0.1711 0.0000 (  3664 PWs)   bands (ev):

   -52.6932 -52.6785 -52.5391 -52.5207 -36.4771 -36.4484 -36.4387 -36.4211
   -36.3410 -36.3020 -36.2780 -36.2771 -27.3157 -27.3151 -27.3131 -27.3131
   -27.3051 -27.3041 -27.3034 -27.3030 -27.2648 -27.2635 -27.2612 -27.2610
   -14.6605 -14.6408 -14.6397 -14.6174 -14.6154 -14.6020 -14.5989 -14.5955
   -14.5797 -14.5777 -14.5726 -14.5519 -14.5271 -14.5096 -14.5072 -14.4901
   -14.4804 -14.4638 -14.4541 -14.4539 -14.4413 -14.4207 -14.4155 -14.3790
     7.3069   7.5696   7.6553   7.6689   7.7384   7.7801   7.8055   7.8166
     7.8264   7.8514   7.8661   7.8898   7.9192   7.9588   7.9880   7.9898
     8.0365   8.0628   8.1066   8.1818   8.2371   8.5994   8.6054   8.7666
     8.9756   9.2341   9.3387   9.4678   9.4854   9.4874   9.5325   9.7032
     9.7362   9.8471   9.8629   9.8971  10.0687  10.1094  10.1154  10.2051
    10.2409  10.4008  10.6243  10.6683  10.6973  10.7367  10.8170  10.8759
    10.9716  10.9732  11.1495  11.2136  11.3166  11.3299  11.4376  11.4886
    11.5125  11.6522  11.6963  11.6997  11.7062  11.9405

          k = 0.0000 0.1711 0.0876 (  3669 PWs)   bands (ev):

   -52.6813 -52.6673 -52.5865 -52.5446 -36.5070 -36.4623 -36.4233 -36.3948
   -36.3537 -36.3293 -36.2907 -36.2772 -27.3155 -27.3153 -27.3131 -27.3129
   -27.3056 -27.3044 -27.3032 -27.3030 -27.2650 -27.2641 -27.2615 -27.2611
   -14.6878 -14.6469 -14.6316 -14.6238 -14.6152 -14.6070 -14.6045 -14.5984
   -14.5881 -14.5780 -14.5604 -14.5492 -14.5308 -14.5177 -14.5075 -14.5019
   -14.4855 -14.4619 -14.4489 -14.4430 -14.4415 -14.4242 -14.4101 -14.3923
     7.3986   7.5913   7.6460   7.7073   7.7267   7.7403   7.7784   7.7823
     7.8576   7.8609   7.8776   7.9122   7.9245   7.9488   7.9579   7.9829
     7.9993   8.0446   8.1207   8.1910   8.2479   8.4327   8.6450   8.8178
     9.0505   9.2523   9.3089   9.4443   9.4914   9.5601   9.5757   9.6996
     9.7193   9.7378   9.8205   9.8703  10.0571  10.0855  10.0957  10.1603
    10.2086  10.3663  10.5422  10.5734  10.7489  10.7676  10.8437  10.9164
    10.9485  10.9684  11.0683  11.2178  11.2532  11.2971  11.3941  11.4270
    11.5493  11.6616  11.6630  11.6978  11.7418  11.9515

          k = 0.0000 0.1711-0.1751 (  3666 PWs)   bands (ev):

   -52.6373 -52.6373 -52.5896 -52.5896 -36.4564 -36.4564 -36.3893 -36.3893
   -36.3508 -36.3508 -36.3088 -36.3088 -27.3153 -27.3153 -27.3130 -27.3130
   -27.3042 -27.3042 -27.3033 -27.3033 -27.2647 -27.2647 -27.2613 -27.2613
   -14.6605 -14.6605 -14.6206 -14.6206 -14.6078 -14.6078 -14.6027 -14.6027
   -14.5681 -14.5681 -14.5395 -14.5395 -14.5365 -14.5365 -14.5047 -14.5047
   -14.4747 -14.4747 -14.4516 -14.4516 -14.4373 -14.4373 -14.4051 -14.4051
     7.5912   7.5912   7.6502   7.6502   7.7334   7.7334   7.8039   7.8039
     7.8505   7.8505   7.8945   7.8945   7.9185   7.9185   7.9494   7.9494
     7.9864   7.9864   8.2174   8.2174   8.2330   8.2330   8.8233   8.8233
     9.0892   9.0892   9.4605   9.4605   9.5120   9.5120   9.5931   9.5931
     9.7244   9.7244   9.8592   9.8592   9.9557   9.9557  10.2583  10.2583
    10.2871  10.2871  10.3203  10.3203  10.7905  10.7905  10.8612  10.8612
    10.9294  10.9294  11.1868  11.1868  11.3384  11.3384  11.3594  11.3594
    11.6069  11.6069  11.6669  11.6669  11.8163  11.8163

          k =-0.3216 0.0000 0.0000 (  3722 PWs)   bands (ev):

   -52.7506 -52.7506 -52.7376 -52.7376 -36.4997 -36.4997 -36.4768 -36.4768
   -36.4399 -36.4399 -36.4352 -36.4352 -27.3132 -27.3132 -27.3127 -27.3127
   -27.3058 -27.3058 -27.3045 -27.3045 -27.2657 -27.2657 -27.2636 -27.2636
   -14.7320 -14.7320 -14.6805 -14.6805 -14.6482 -14.6482 -14.6307 -14.6307
   -14.5998 -14.5998 -14.5457 -14.5457 -14.5345 -14.5345 -14.5195 -14.5195
   -14.4909 -14.4909 -14.4649 -14.4649 -14.4497 -14.4497 -14.4163 -14.4163
     7.4908   7.4908   7.5536   7.5536   7.6689   7.6689   7.7333   7.7333
     7.8067   7.8067   7.8183   7.8183   7.9091   7.9091   8.0332   8.0332
     8.0621   8.0621   8.3234   8.3234   8.4937   8.4937   8.6138   8.6138
     9.0648   9.0648   9.2560   9.2560   9.4297   9.4297   9.8159   9.8159
    10.1197  10.1197  10.1570  10.1570  10.2122  10.2122  10.2641  10.2641
    10.4851  10.4851  10.5840  10.5840  10.8070  10.8070  10.8660  10.8660
    10.8660  10.8660  11.1620  11.1620  11.2707  11.2707  11.3732  11.3732
    11.6401  11.6401  11.7409  11.7409  12.0234  12.0234

          k =-0.3216 0.0000 0.0876 (  3710 PWs)   bands (ev):

   -52.7191 -52.7191 -52.7126 -52.7126 -36.4749 -36.4749 -36.4653 -36.4653
   -36.4363 -36.4363 -36.4001 -36.4001 -27.3132 -27.3132 -27.3126 -27.3126
   -27.3056 -27.3056 -27.3044 -27.3044 -27.2653 -27.2653 -27.2642 -27.2642
   -14.7220 -14.7220 -14.6747 -14.6747 -14.6441 -14.6441 -14.6183 -14.6183
   -14.5916 -14.5916 -14.5403 -14.5403 -14.5380 -14.5380 -14.4998 -14.4998
   -14.4836 -14.4836 -14.4577 -14.4577 -14.4511 -14.4511 -14.4273 -14.4273
     7.5011   7.5011   7.5550   7.5550   7.6970   7.6970   7.7446   7.7446
     7.8180   7.8180   7.8619   7.8619   7.8909   7.8909   8.0147   8.0147
     8.0946   8.0946   8.3194   8.3194   8.4992   8.4992   8.6189   8.6189
     8.9581   8.9581   9.3411   9.3411   9.4705   9.4705   9.8174   9.8174
     9.9188   9.9188  10.0049  10.0049  10.0932  10.0932  10.3344  10.3344
    10.4564  10.4564  10.6004  10.6004  10.6789  10.6789  11.0149  11.0149
    11.0776  11.0776  11.2295  11.2295  11.3455  11.3455  11.4176  11.4176
    11.5369  11.5369  11.8006  11.8006  11.8608  11.8608

          k =-0.3216 0.0000-0.1751 (  3680 PWs)   bands (ev):

   -52.6709 -52.6709 -52.6242 -52.6242 -36.4334 -36.4334 -36.4222 -36.4222
   -36.3794 -36.3794 -36.3678 -36.3678 -27.3133 -27.3133 -27.3124 -27.3124
   -27.3045 -27.3045 -27.3032 -27.3032 -27.2646 -27.2646 -27.2643 -27.2643
   -14.7272 -14.7272 -14.6369 -14.6369 -14.6319 -14.6319 -14.5965 -14.5965
   -14.5594 -14.5594 -14.5389 -14.5389 -14.5309 -14.5309 -14.4910 -14.4910
   -14.4660 -14.4660 -14.4624 -14.4624 -14.4261 -14.4261 -14.4145 -14.4145
     7.4910   7.4910   7.6413   7.6413   7.6915   7.6915   7.7332   7.7332
     7.7983   7.7983   7.9011   7.9011   7.9344   7.9344   8.0555   8.0555
     8.1063   8.1063   8.3359   8.3359   8.4584   8.4584   8.6841   8.6841
     8.8193   8.8193   9.4202   9.4202   9.4677   9.4677   9.7665   9.7665
     9.8182   9.8182  10.0012  10.0012  10.1055  10.1055  10.2676  10.2676
    10.4468  10.4468  10.5304  10.5304  10.7513  10.7513  10.8397  10.8397
    11.1538  11.1538  11.3627  11.3627  11.4277  11.4277  11.4756  11.4756
    11.6250  11.6250  11.6931  11.6931  11.7807  11.7807

          k =-0.3216 0.1711 0.0000 (  3686 PWs)   bands (ev):

   -52.6912 -52.6912 -52.6448 -52.6448 -36.4364 -36.4364 -36.4347 -36.4347
   -36.4118 -36.4118 -36.3899 -36.3899 -27.3126 -27.3126 -27.3125 -27.3125
   -27.3037 -27.3037 -27.3036 -27.3036 -27.2628 -27.2628 -27.2617 -27.2617
   -14.6727 -14.6727 -14.6439 -14.6439 -14.6382 -14.6382 -14.5921 -14.5921
   -14.5789 -14.5789 -14.5450 -14.5450 -14.5170 -14.5170 -14.5044 -14.5044
   -14.4724 -14.4724 -14.4610 -14.4610 -14.4438 -14.4438 -14.4422 -14.4422
     7.6100   7.6100   7.6604   7.6604   7.7596   7.7596   7.8031   7.8031
     7.8791   7.8791   7.9762   7.9762   8.0127   8.0127   8.0685   8.0685
     8.1132   8.1132   8.2268   8.2268   8.6428   8.6428   8.8191   8.8191
     9.1212   9.1212   9.4081   9.4081   9.4920   9.4920   9.7538   9.7538
     9.7689   9.7689   9.9846   9.9846  10.0781  10.0781  10.2859  10.2859
    10.3329  10.3329  10.4630  10.4630  10.5198  10.5198  10.6746  10.6746
    10.8950  10.8950  11.0518  11.0518  11.0717  11.0717  11.3881  11.3881
    11.4208  11.4208  11.6477  11.6477  11.6654  11.6654

          k =-0.3216 0.1711 0.0876 (  3692 PWs)   bands (ev):

   -52.7220 -52.7220 -52.6371 -52.6371 -36.4508 -36.4508 -36.4288 -36.4288
   -36.4140 -36.4140 -36.3991 -36.3991 -27.3131 -27.3131 -27.3124 -27.3124
   -27.3043 -27.3043 -27.3037 -27.3037 -27.2639 -27.2639 -27.2617 -27.2617
   -14.6753 -14.6753 -14.6480 -14.6480 -14.6323 -14.6323 -14.6095 -14.6095
   -14.5775 -14.5775 -14.5461 -14.5461 -14.5258 -14.5258 -14.5005 -14.5005
   -14.4739 -14.4739 -14.4637 -14.4637 -14.4522 -14.4522 -14.4426 -14.4426
     7.6143   7.6143   7.6760   7.6760   7.7837   7.7837   7.8309   7.8309
     7.8896   7.8896   7.9510   7.9510   7.9981   7.9981   8.0137   8.0137
     8.1612   8.1612   8.2361   8.2361   8.6381   8.6381   8.8353   8.8353
     9.0701   9.0701   9.4156   9.4156   9.5586   9.5586   9.6919   9.6919
     9.7731   9.7731   9.8734   9.8734  10.0573  10.0573  10.1471  10.1471
    10.3624  10.3624  10.4635  10.4635  10.5379  10.5379  10.7572  10.7572
    10.8139  10.8139  10.9569  10.9569  11.1699  11.1699  11.3559  11.3559
    11.5779  11.5779  11.6197  11.6197  11.7385  11.7385

          k =-0.3216 0.1711-0.1751 (  3704 PWs)   bands (ev):

   -52.7629 -52.7629 -52.6502 -52.6502 -36.4631 -36.4631 -36.4600 -36.4600
   -36.4271 -36.4271 -36.4040 -36.4040 -27.3133 -27.3133 -27.3125 -27.3125
   -27.3049 -27.3049 -27.3041 -27.3041 -27.2645 -27.2645 -27.2627 -27.2627
   -14.6846 -14.6846 -14.6554 -14.6554 -14.6365 -14.6365 -14.6062 -14.6062
   -14.5899 -14.5899 -14.5544 -14.5544 -14.5334 -14.5334 -14.5051 -14.5051
   -14.4766 -14.4766 -14.4747 -14.4747 -14.4582 -14.4582 -14.4435 -14.4435
     7.6069   7.6069   7.7161   7.7161   7.8061   7.8061   7.8618   7.8618
     7.8920   7.8920   7.9093   7.9093   7.9630   7.9630   8.0090   8.0090
     8.1549   8.1549   8.2609   8.2609   8.6841   8.6841   8.8122   8.8122
     8.9627   8.9627   9.4685   9.4685   9.5846   9.5846   9.6107   9.6107
     9.7392   9.7392   9.9514   9.9514  10.0213  10.0213  10.1006  10.1006
    10.2888  10.2888  10.4566  10.4566  10.4759  10.4759  10.7739  10.7739
    10.7838  10.7838  10.9312  10.9312  11.1776  11.1776  11.4342  11.4342
    11.5900  11.5900  11.7536  11.7536  11.8016  11.8300

     the Fermi energy is    10.6263 ev

!    total energy              =   -1672.87818881 Ry
     Harris-Foulkes estimate   =   -1672.87822693 Ry
     estimated scf accuracy    <       0.00004064 Ry

     The total energy is the sum of the following terms:

     one-electron contribution =    -500.01443110 Ry
     hartree contribution      =     308.19349760 Ry
     xc contribution           =    -177.03263417 Ry
     ewald contribution        =   -1302.41842699 Ry
     smearing contrib. (-TS)   =      -1.60619415 Ry

     convergence has been achieved in  19 iterations

     Forces acting on atoms (Ry/au):

     atom    1 type  1   force =     0.00000000    0.00081480    0.00056967
     atom    2 type  1   force =     0.00000000   -0.00081480   -0.00056967
     atom    3 type  1   force =     0.00000000    0.00081480   -0.00056967
     atom    4 type  1   force =     0.00000000   -0.00081480    0.00056967
     atom    5 type  1   force =     0.00000000    0.00319813   -0.00590121
     atom    6 type  1   force =     0.00000000   -0.00319813    0.00590121
     atom    7 type  1   force =     0.00000000    0.00319813    0.00590121
     atom    8 type  1   force =     0.00000000   -0.00319813   -0.00590121
     atom    9 type  2   force =     0.00000000    0.00474256   -0.00594102
     atom   10 type  2   force =     0.00000000   -0.00474256    0.00594102
     atom   11 type  2   force =     0.00000000    0.00474256    0.00594102
     atom   12 type  2   force =     0.00000000   -0.00474256   -0.00594102

     Total force =     0.020379     Total SCF correction =     0.000000


     entering subroutine stress ...

          total   stress  (Ry/bohr**3)                   (kbar)     P=-1282.18
  -0.00907110   0.00000000   0.00000000      -1334.40      0.00      0.00
   0.00000000  -0.00845897   0.00000000          0.00  -1244.36      0.00
   0.00000000   0.00000000  -0.00861826          0.00      0.00  -1267.79


     number of scf cycles    =   3
     number of bfgs steps    =   2

     enthalpy old            =   -1683.2980892133 Ry
     enthalpy new            =   -1672.8781888088 Ry

     CASE: enthalpy_new > enthalpy_old

     new trust radius        =       1.1066616346 bohr

     trust_radius < trust_radius_min

     resetting bfgs history

     Message from routine bfgs:
     history already reset at previous step: stopping
     new conv_thr            =       0.0001000000 Ry

     new unit-cell volume =   1285.77394 a.u.^3 (   190.53204 Ang^3 )

CELL_PARAMETERS (alat=  7.01510508)
   1.156263236   0.000000000   0.000000000
   0.000000000   1.489595353   0.000000000
   0.000000000   0.000000000   2.162405075

ATOMIC_POSITIONS (crystal)
Co       0.750000000   0.825182445   0.434985179
Co       0.250000000   0.174817555   0.565014821
Co       0.750000000   0.325182445   0.065014821
Co       0.250000000   0.674817555   0.934985179
Co       0.250000000   0.539339246   0.279978383
Co       0.750000000   0.460660754   0.720021617
Co       0.250000000   0.039339246   0.220021617
Co       0.750000000   0.960660754   0.779978383
Si       0.250000000   0.201083370   0.893092566
Si       0.750000000   0.798916630   0.106907434
Si       0.250000000   0.701083370   0.606907434
Si       0.750000000   0.298916630   0.393092566



     Writing output data file Prototype-La-oP12-Co2Si.save
     NEW-OLD atomic charge density approx. for the potential
     NEW k-points:
        k(    1) = (   0.0000000   0.0000000   0.0000000), wk =   0.0833333
        k(    2) = (   0.0000000   0.0000000   0.1156120), wk =   0.1666667
        k(    3) = (   0.0000000   0.0000000  -0.2312240), wk =   0.0833333
        k(    4) = (   0.0000000   0.2237744   0.0000000), wk =   0.1666667
        k(    5) = (   0.0000000   0.2237744   0.1156120), wk =   0.3333333
        k(    6) = (   0.0000000   0.2237744  -0.2312240), wk =   0.1666667
        k(    7) = (  -0.4324275   0.0000000   0.0000000), wk =   0.0833333
        k(    8) = (  -0.4324275   0.0000000   0.1156120), wk =   0.1666667
        k(    9) = (  -0.4324275   0.0000000  -0.2312240), wk =   0.0833333
        k(   10) = (  -0.4324275   0.2237744   0.0000000), wk =   0.1666667
        k(   11) = (  -0.4324275   0.2237744   0.1156120), wk =   0.3333333
        k(   12) = (  -0.4324275   0.2237744  -0.2312240), wk =   0.1666667

     total cpu time spent up to now is      414.0 secs

     Self-consistent Calculation

     iteration #  1     ecut=    40.00 Ry     beta=0.70
     CG style diagonalization
     c_bands:  3 eigenvalues not converged
     c_bands:  1 eigenvalues not converged
     c_bands:  4 eigenvalues not converged
     c_bands:  2 eigenvalues not converged
     c_bands:  2 eigenvalues not converged
     c_bands:  3 eigenvalues not converged
     c_bands:  2 eigenvalues not converged
     c_bands:  2 eigenvalues not converged
     ethr =  1.00E-06,  avg # of iterations = 32.6

     total cpu time spent up to now is      471.2 secs

     total energy              =   -1612.98881149 Ry
     Harris-Foulkes estimate   =   -1814.00403624 Ry
     estimated scf accuracy    <     254.30020971 Ry

     iteration #  2     ecut=    40.00 Ry     beta=0.70
     CG style diagonalization
     ethr =  1.00E-02,  avg # of iterations =  6.3

     total cpu time spent up to now is      483.3 secs

     total energy              =   -1658.96475205 Ry
     Harris-Foulkes estimate   =   -1712.20150769 Ry
     estimated scf accuracy    <      80.53455116 Ry

     iteration #  3     ecut=    40.00 Ry     beta=0.70
     CG style diagonalization
     ethr =  1.00E-02,  avg # of iterations =  5.2

     total cpu time spent up to now is      493.3 secs

     total energy              =   -1676.99265954 Ry
     Harris-Foulkes estimate   =   -1691.22152371 Ry
     estimated scf accuracy    <      30.05111425 Ry

     iteration #  4     ecut=    40.00 Ry     beta=0.70
     CG style diagonalization
     ethr =  1.00E-02,  avg # of iterations =  3.7

     total cpu time spent up to now is      499.8 secs

     total energy              =   -1684.33280241 Ry
     Harris-Foulkes estimate   =   -1685.75582137 Ry
     estimated scf accuracy    <       3.46390178 Ry

     iteration #  5     ecut=    40.00 Ry     beta=0.70
     CG style diagonalization
     ethr =  1.88E-03,  avg # of iterations =  3.6

     total cpu time spent up to now is      506.3 secs

     total energy              =   -1684.93932079 Ry
     Harris-Foulkes estimate   =   -1685.42243554 Ry
     estimated scf accuracy    <       1.00286918 Ry

     iteration #  6     ecut=    40.00 Ry     beta=0.70
     CG style diagonalization
     ethr =  5.45E-04,  avg # of iterations =  3.6

     total cpu time spent up to now is      513.4 secs

     total energy              =   -1685.12050717 Ry
     Harris-Foulkes estimate   =   -1685.23262773 Ry
     estimated scf accuracy    <       0.25450637 Ry

     iteration #  7     ecut=    40.00 Ry     beta=0.70
     CG style diagonalization
     ethr =  1.38E-04,  avg # of iterations =  3.6

     total cpu time spent up to now is      521.1 secs

     total energy              =   -1685.16792039 Ry
     Harris-Foulkes estimate   =   -1685.17287827 Ry
     estimated scf accuracy    <       0.00899732 Ry

     iteration #  8     ecut=    40.00 Ry     beta=0.70
     CG style diagonalization
     c_bands:  1 eigenvalues not converged
     c_bands:  2 eigenvalues not converged
     ethr =  4.89E-06,  avg # of iterations =  4.6

     total cpu time spent up to now is      530.2 secs

     total energy              =   -1685.17166842 Ry
     Harris-Foulkes estimate   =   -1685.17236924 Ry
     estimated scf accuracy    <       0.00130046 Ry

     iteration #  9     ecut=    40.00 Ry     beta=0.70
     CG style diagonalization
     c_bands:  1 eigenvalues not converged
     c_bands:  1 eigenvalues not converged
     ethr =  7.07E-07,  avg # of iterations =  4.0

     total cpu time spent up to now is      537.7 secs

     total energy              =   -1685.17207199 Ry
     Harris-Foulkes estimate   =   -1685.17217283 Ry
     estimated scf accuracy    <       0.00021998 Ry

     iteration # 10     ecut=    40.00 Ry     beta=0.70
     CG style diagonalization
     c_bands:  1 eigenvalues not converged
     ethr =  1.20E-07,  avg # of iterations =  3.7

     total cpu time spent up to now is      544.1 secs

     End of self-consistent calculation

          k = 0.0000 0.0000 0.0000 (  3675 PWs)   bands (ev):

   -38.7736 -38.7709 -38.7633 -38.7511 -17.6877 -17.4347 -17.4103 -17.2126
   -17.1531 -16.9974 -16.9385 -16.9204 -10.0803 -10.0466 -10.0300 -10.0143
   -10.0065  -9.9733  -9.9300  -9.8956  -9.8595  -9.8415  -9.8143  -9.7413
     2.6375   3.0196   3.1719   3.4083   3.5040   3.5778   3.8177   3.9564
     4.1192   4.1764   4.2492   4.4380   4.5880   4.5885   4.7515   4.8379
     4.9322   5.0115   5.0768   5.2592   5.4215   5.5645   5.9150   6.0443
    21.8423  21.8698  21.9510  22.3631  22.6190  22.6382  22.6536  22.7987
    23.0200  23.4443  23.5515  23.7079  23.7839  23.8918  23.9512  23.9848
    24.4164  25.1228  25.1794  25.2509  25.4938  25.7952  26.5773  26.6641
    26.8388  26.8845  26.9435  27.4717  27.7622  28.0892  28.3328  28.3996
    28.5864  28.6139  28.6336  28.7298  29.5037  30.2338  30.2368  30.3521
    30.3668  30.4703  30.6911  31.2012  31.5620  31.6327  31.9611  32.3285
    33.0244  33.0316  33.4992  33.6280  33.6338  33.7011  33.9926  34.6032
    34.7167  34.7208  34.7386  34.8855  35.1414  36.4600

          k = 0.0000 0.0000 0.1156 (  3675 PWs)   bands (ev):

   -38.7786 -38.7676 -38.7630 -38.7491 -17.6716 -17.5347 -17.3113 -17.2201
   -17.1391 -17.0258 -16.9305 -16.9208 -10.0602 -10.0475 -10.0242 -10.0055
    -9.9922  -9.9895  -9.9485  -9.9045  -9.8617  -9.8605  -9.7927  -9.7496
     2.6767   2.9438   3.2549   3.4220   3.5241   3.5902   3.6817   4.0445
     4.0617   4.2899   4.3037   4.4269   4.5833   4.6427   4.7049   4.7271
     4.8493   5.1366   5.1647   5.2004   5.4053   5.4666   5.9284   6.0168
    21.8314  21.8395  22.1355  22.2066  22.2845  22.6267  22.8708  22.9565
[...]

     total energy              =   -1684.75351737 Ry
     Harris-Foulkes estimate   =   -1691.06965508 Ry
     estimated scf accuracy    <      14.74619426 Ry

     iteration #  5     ecut=    40.00 Ry     beta=0.70
     CG style diagonalization
     ethr =  8.01E-03,  avg # of iterations =  3.5

     total cpu time spent up to now is      751.6 secs

     total energy              =   -1686.48689140 Ry
     Harris-Foulkes estimate   =   -1687.36477992 Ry
     estimated scf accuracy    <       1.55830554 Ry

     iteration #  6     ecut=    40.00 Ry     beta=0.70
     CG style diagonalization
     c_bands:  1 eigenvalues not converged
     ethr =  8.47E-04,  avg # of iterations =  4.3

     total cpu time spent up to now is      764.9 secs

     total energy              =   -1686.86246730 Ry
     Harris-Foulkes estimate   =   -1687.27683297 Ry
     estimated scf accuracy    <       1.08313987 Ry

     iteration #  7     ecut=    40.00 Ry     beta=0.70
     CG style diagonalization
     ethr =  5.89E-04,  avg # of iterations =  3.5

     total cpu time spent up to now is      775.6 secs

     total energy              =   -1687.03578531 Ry
     Harris-Foulkes estimate   =   -1687.13425309 Ry
     estimated scf accuracy    <       0.24701021 Ry

     iteration #  8     ecut=    40.00 Ry     beta=0.70
     CG style diagonalization
     c_bands:  2 eigenvalues not converged
     ethr =  1.34E-04,  avg # of iterations =  3.8

     total cpu time spent up to now is      786.5 secs

     total energy              =   -1687.06436557 Ry
     Harris-Foulkes estimate   =   -1687.07879183 Ry
     estimated scf accuracy    <       0.02718373 Ry

     iteration #  9     ecut=    40.00 Ry     beta=0.70
     CG style diagonalization
     c_bands:  1 eigenvalues not converged
     c_bands:  2 eigenvalues not converged
     ethr =  1.48E-05,  avg # of iterations =  4.2

     total cpu time spent up to now is      799.3 secs

     total energy              =   -1687.07276797 Ry
     Harris-Foulkes estimate   =   -1687.07336358 Ry
     estimated scf accuracy    <       0.00112755 Ry

     iteration # 10     ecut=    40.00 Ry     beta=0.70
     CG style diagonalization
     c_bands:  1 eigenvalues not converged
     c_bands:  1 eigenvalues not converged
     ethr =  6.13E-07,  avg # of iterations =  5.0

     total cpu time spent up to now is      815.8 secs

     total energy              =   -1687.07365032 Ry
     Harris-Foulkes estimate   =   -1687.07370123 Ry
     estimated scf accuracy    <       0.00011107 Ry

     iteration # 11     ecut=    40.00 Ry     beta=0.70
     CG style diagonalization
     c_bands:  1 eigenvalues not converged
     ethr =  6.04E-08,  avg # of iterations =  4.0

     total cpu time spent up to now is      827.3 secs

     End of self-consistent calculation

          k = 0.0000 0.0000 0.0000 (  5487 PWs)   bands (ev):

   -39.0134 -39.0020 -39.0018 -39.0003 -17.5978 -17.3445 -17.3215 -17.1137
   -17.0543 -16.9017 -16.8456 -16.8276 -10.3418 -10.3069 -10.2932 -10.2797
   -10.2607 -10.2482 -10.1929 -10.1439 -10.1088 -10.0935 -10.0607 -10.0154
     2.5300   2.8928   3.0659   3.2901   3.4019   3.4530   3.6913   3.8337
     3.9934   4.0488   4.1240   4.2938   4.4384   4.4536   4.6025   4.6789
     4.8088   4.8873   4.9015   5.1260   5.2500   5.4094   5.7919   5.8935
    21.8312  21.8617  21.9452  22.3494  22.6038  22.6227  22.6504  22.7938
    23.0011  23.4417  23.5460  23.6637  23.7807  23.8472  23.9366  23.9757
    24.3991  25.1016  25.1737  25.2414  25.4882  25.7653  26.5117  26.5834
    26.8037  26.8445  26.9238  27.4362  27.7003  28.0681  28.3140  28.3605
    28.5458  28.5526  28.6023  28.6800  29.4856  30.2006  30.2132  30.3238
    30.3377  30.4251  30.6493  31.1635  31.5390  31.5945  31.8742  32.2823
    32.9700  32.9827  33.4535  33.5962  33.6005  33.6485  33.9298  34.5494
    34.6660  34.6792  34.6819  34.7690  35.1176  35.3760

          k = 0.0000 0.0000 0.1156 (  5501 PWs)   bands (ev):

   -39.0143 -39.0059 -39.0007 -39.0001 -17.5816 -17.4459 -17.2194 -17.1209
   -17.0414 -16.9297 -16.8405 -16.8265 -10.3399 -10.3180 -10.2878 -10.2647
   -10.2622 -10.2405 -10.2046 -10.1600 -10.1123 -10.1017 -10.0537 -10.0228
     2.5682   2.8164   3.1539   3.3006   3.4050   3.4858   3.5708   3.9259
     3.9361   4.1581   4.1843   4.2718   4.4347   4.5039   4.5448   4.5881
     4.7114   4.9893   5.0169   5.0333   5.2253   5.3168   5.8017   5.8767
    21.8250  21.8279  22.1194  22.1973  22.2749  22.6150  22.8617  22.9487
    23.0785  23.2673  23.8774  23.9048  23.9817  23.9868  24.0836  24.1602
    24.5535  24.7287  24.9677  25.0160  25.1042  25.5691  26.1536  26.7733
    26.8062  27.0671  27.1032  27.4791  27.8516  28.2718  28.2765  28.3160
    28.3539  28.5056  28.8566  28.9889  29.3338  29.6689  29.7506  30.1064
    30.1840  30.4396  30.9727  31.1877  31.4401  31.8208  31.8724  32.2058
    32.2236  32.5703  32.9974  33.2968  33.4801  33.6178  34.2716  34.4121
    34.8408  34.9930  35.1118  35.1490  35.5118  35.9500

          k = 0.0000 0.0000-0.2312 (  5538 PWs)   bands (ev):

   -39.0124 -39.0124 -39.0016 -39.0016 -17.5313 -17.5313 -17.1479 -17.1479
   -16.9925 -16.9925 -16.8310 -16.8310 -10.3330 -10.3330 -10.2754 -10.2754
   -10.2366 -10.2366 -10.2102 -10.2102 -10.1129 -10.1128 -10.0407 -10.0407
     2.6739   2.6739   3.3384   3.3384   3.3581   3.3581   3.6951   3.6951
     4.1365   4.1365   4.2562   4.2562   4.4424   4.4424   4.5763   4.5763
     4.7807   4.7807   5.1389   5.1389   5.1480   5.1480   5.8358   5.8358
    21.8682  21.8682  21.9291  21.9291  22.5039  22.5039  23.1614  23.1614
    23.5662  23.5662  23.5717  23.5717  24.1299  24.1299  24.3905  24.3905
    24.6487  24.6487  24.7115  24.7115  24.8937  24.8937  26.2838  26.2838
    27.4664  27.4664  27.4964  27.4964  27.9887  27.9887  28.0967  28.0967
    28.7550  28.7550  28.8867  28.8867  28.9400  28.9400  29.7664  29.7664
    30.4648  30.4648  30.9613  30.9613  31.4753  31.4753  32.0352  32.0352
    32.0807  32.0807  33.0400  33.0400  33.6907  33.6907  34.1547  34.1548
    34.9406  34.9407  35.8505  35.8506  35.9139  35.9140

          k = 0.0000 0.2238 0.0000 (  5477 PWs)   bands (ev):

   -39.0096 -39.0061 -39.0026 -38.9982 -17.5208 -17.3719 -17.2870 -17.2019
   -17.0557 -16.9368 -16.8590 -16.8169 -10.3308 -10.3004 -10.2877 -10.2754
   -10.2729 -10.2600 -10.1674 -10.1432 -10.0724 -10.0635 -10.0389 -10.0098
     2.8640   3.3106   3.3218   3.3506   3.4025   3.4174   3.5391   3.6556
     3.8160   3.9681   4.0547   4.1597   4.2489   4.6748   4.6883   4.8770
     4.8987   4.9162   4.9498   5.0324   5.1226   5.1861   5.3182   5.3712
    22.2957  22.4580  22.4586  22.5035  22.8208  23.1057  23.1253  23.3492
    23.4573  23.6160  23.6832  23.8438  23.8611  24.1688  24.4043  24.4635
    24.6051  24.7936  24.9010  24.9485  25.0124  25.5155  26.2215  26.3787
    26.8019  26.8870  27.1473  27.4317  27.5156  27.7818  28.0685  28.2294
    28.4408  29.0394  29.1024  29.2494  29.5557  29.5583  29.8469  30.1584
    30.2764  30.3063  30.7766  30.9011  31.1455  31.2481  31.5001  31.6930
    32.0971  32.2847  32.5201  32.9983  33.0890  33.1106  33.5415  33.7789
    34.0499  34.4842  34.7042  35.1786  35.3226  35.3399

          k = 0.0000 0.2238 0.1156 (  5493 PWs)   bands (ev):

   -39.0099 -39.0069 -39.0032 -38.9999 -17.5089 -17.4138 -17.2657 -17.2139
   -17.0202 -16.9143 -16.8821 -16.8303 -10.3277 -10.3110 -10.2865 -10.2771
   -10.2633 -10.2518 -10.1755 -10.1588 -10.0786 -10.0715 -10.0305 -10.0130
     2.9133   3.1939   3.3253   3.3779   3.4158   3.4586   3.5689   3.7594
     3.8130   4.0130   4.0342   4.1112   4.2920   4.6218   4.6976   4.7972
     4.8015   4.8264   4.9817   5.0910   5.1053   5.2219   5.3035   5.3819
    22.2286  22.3612  22.4872  22.6388  22.7498  23.0678  23.3141  23.3854
    23.4412  23.6260  23.6776  23.7982  23.9827  24.2949  24.4241  24.5351
    24.5935  24.7404  24.8909  25.0539  25.0568  25.6280  26.2843  26.7809
    26.7897  26.8826  26.9547  27.2441  27.4604  27.6053  27.9773  28.4432
    28.7256  28.7300  28.8642  28.9693  29.3928  29.5275  29.6178  29.8830
    30.0646  30.2920  30.6867  30.8889  31.4626  31.5675  31.5826  31.7348
    31.7785  31.9165  32.5465  32.7139  33.0691  33.1395  33.4797  33.9192
    33.9671  34.3681  34.6430  34.9315  35.2303  35.7004

          k = 0.0000 0.2238-0.2312 (  5482 PWs)   bands (ev):

   -39.0072 -39.0072 -39.0021 -39.0021 -17.4718 -17.4718 -17.2390 -17.2390
   -16.9459 -16.9459 -16.8672 -16.8672 -10.3186 -10.3186 -10.2800 -10.2800
   -10.2436 -10.2436 -10.1789 -10.1789 -10.0790 -10.0790 -10.0186 -10.0186
     3.0389   3.0389   3.3744   3.3744   3.4308   3.4308   3.7170   3.7170
     3.9047   3.9047   4.1171   4.1171   4.4371   4.4371   4.7051   4.7051
     4.7334   4.7334   5.0583   5.0583   5.1765   5.1765   5.3514   5.3514
    22.2259  22.2259  22.4665  22.4665  23.1752  23.1752  23.4180  23.4180
    23.5274  23.5274  23.7769  23.7769  23.9455  23.9455  24.5616  24.5616
    24.8299  24.8299  24.8475  24.8475  25.6277  25.6277  26.3081  26.3081
    26.7927  26.7927  27.0874  27.0874  27.8736  27.8736  28.1359  28.1359
    28.5394  28.5394  28.9570  28.9570  28.9843  28.9843  29.7686  29.7686
    30.4595  30.4595  30.4811  30.4811  31.1873  31.1873  31.4500  31.4500
    31.7421  31.7421  32.9386  32.9386  33.4264  33.4264  33.5201  33.5202
    34.1420  34.1420  34.9760  34.9760  35.1812  35.1813

          k =-0.4324 0.0000 0.0000 (  5508 PWs)   bands (ev):

   -39.0066 -39.0066 -39.0040 -39.0040 -17.3984 -17.3984 -17.2246 -17.2246
   -17.0962 -17.0962 -16.8341 -16.8341 -10.3127 -10.3127 -10.2947 -10.2947
   -10.2057 -10.2057 -10.1983 -10.1983 -10.1043 -10.1043 -10.0414 -10.0414
     2.6545   2.6545   3.1461   3.1461   3.3368   3.3368   3.7526   3.7526
     3.7844   3.7844   4.4088   4.4088   4.5329   4.5329   4.7015   4.7015
     5.0157   5.0157   5.1877   5.1877   5.2812   5.2812   5.7661   5.7661
    22.0404  22.0404  22.8802  22.8802  23.1189  23.1189  23.1545  23.1545
    23.3811  23.3811  23.4238  23.4238  23.5041  23.5041  24.3578  24.3578
    24.7769  24.7769  25.1956  25.1956  25.3194  25.3194  25.6258  25.6258
    26.7414  26.7414  27.1885  27.1885  27.3211  27.3211  28.3444  28.3444
    29.3673  29.3673  29.4053  29.4053  29.7604  29.7604  29.7646  29.7646
    30.5878  30.5878  30.6489  30.6489  31.1093  31.1093  31.6620  31.6620
    31.8102  31.8102  33.0055  33.0055  33.4555  33.4556  33.8916  33.8916
    33.9660  33.9660  35.0199  35.0203  35.6484  35.6661

          k =-0.4324 0.0000 0.1156 (  5490 PWs)   bands (ev):

   -39.0060 -39.0060 -39.0025 -39.0025 -17.4045 -17.4045 -17.2220 -17.2220
   -17.0927 -17.0927 -16.8334 -16.8334 -10.3083 -10.3083 -10.2905 -10.2905
   -10.2376 -10.2376 -10.1667 -10.1667 -10.1039 -10.1039 -10.0415 -10.0415
     2.6464   2.6464   3.1287   3.1287   3.4695   3.4695   3.6688   3.6688
     3.9414   3.9414   4.3120   4.3120   4.4029   4.4029   4.6893   4.6893
     5.0886   5.0886   5.1573   5.1573   5.2963   5.2963   5.7652   5.7652
    22.1551  22.1551  22.6756  22.6756  23.0383  23.0383  23.2368  23.2368
    23.3140  23.3140  23.6384  23.6384  23.7689  23.7689  24.2079  24.2079
    24.3742  24.3742  25.3203  25.3203  25.6781  25.6781  25.9036  25.9036
    26.6134  26.6134  27.1630  27.1630  27.7248  27.7248  28.1798  28.1798
    28.7429  28.7429  28.9361  28.9361  29.4199  29.4199  29.8115  29.8115
    30.2775  30.2775  30.5980  30.5980  31.2262  31.2262  32.0897  32.0897
    32.4940  32.4940  32.7642  32.7642  33.6547  33.6547  33.7244  33.7244
    34.1218  34.1218  34.9300  34.9301  35.1850  35.1855

          k =-0.4324 0.0000-0.2312 (  5496 PWs)   bands (ev):

   -39.0076 -39.0076 -39.0013 -39.0013 -17.4103 -17.4103 -17.2198 -17.2198
   -17.0891 -17.0891 -16.8326 -16.8326 -10.3056 -10.3056 -10.2857 -10.2857
   -10.2555 -10.2555 -10.1577 -10.1577 -10.1063 -10.1063 -10.0417 -10.0417
     2.6343   2.6343   3.1365   3.1365   3.5215   3.5215   3.8251   3.8251
     3.9054   3.9054   4.2391   4.2391   4.3036   4.3036   4.6327   4.6327
     5.1086   5.1086   5.2388   5.2388   5.2425   5.2425   5.7651   5.7651
    22.2506  22.2506  22.5964  22.5964  22.9856  22.9856  23.1652  23.1652
    23.4814  23.4814  23.7229  23.7229  24.0082  24.0082  24.0346  24.0346
    24.1597  24.1597  25.4783  25.4783  25.5851  25.5851  26.4610  26.4610
    26.5753  26.5753  27.1799  27.1799  27.9279  27.9279  28.0142  28.0142
    28.5078  28.5078  28.5502  28.5502  28.9520  28.9520  29.7502  29.7502
    29.9992  29.9992  30.4091  30.4091  31.6420  31.6420  31.9173  31.9173
    32.7828  32.7828  33.3853  33.3855  33.6650  33.6650  33.6815  33.6816
    34.0231  34.0232  34.3685  34.3687  35.3158  35.3160

          k =-0.4324 0.2238 0.0000 (  5500 PWs)   bands (ev):

   -39.0062 -39.0062 -39.0030 -39.0030 -17.3318 -17.3318 -17.2507 -17.2507
   -17.0673 -17.0673 -16.9306 -16.9306 -10.2859 -10.2859 -10.2822 -10.2822
   -10.2032 -10.2032 -10.2008 -10.2008 -10.0711 -10.0711 -10.0404 -10.0404
     2.9322   2.9322   3.0884   3.0884   3.3208   3.3208   3.8938   3.8938
     3.9487   3.9487   4.2241   4.2241   4.4835   4.4835   4.5305   4.5305
     5.0577   5.0577   5.0907   5.0907   5.2719   5.2719   5.3788   5.3788
    22.5740  22.5740  23.0760  23.0760  23.1501  23.1501  23.4534  23.4534
    23.5486  23.5486  23.7953  23.7953  24.2360  24.2360  24.4268  24.4268
    24.7275  24.7275  25.0820  25.0820  25.8016  25.8016  25.8987  25.8987
    26.8193  26.8193  27.1950  27.1950  27.5402  27.5402  28.2760  28.2760
    28.6126  28.6126  28.8095  28.8095  29.2315  29.2315  29.7698  29.7698
    29.9120  29.9120  30.6506  30.6506  30.8945  30.8945  31.6005  31.6005
    31.9968  31.9968  32.5364  32.5364  32.6119  32.6119  33.3509  33.3510
    33.6462  33.6463  34.1946  34.1949  34.3669  34.3670

          k =-0.4324 0.2238 0.1156 (  5502 PWs)   bands (ev):

   -39.0061 -39.0061 -39.0033 -39.0033 -17.3373 -17.3373 -17.2510 -17.2510
   -17.0629 -17.0629 -16.9283 -16.9283 -10.2951 -10.2951 -10.2805 -10.2805
   -10.2166 -10.2166 -10.1824 -10.1824 -10.0740 -10.0740 -10.0390 -10.0390
     2.9499   2.9499   3.1528   3.1528   3.4024   3.4024   3.6707   3.6707
     3.9207   3.9207   4.2349   4.2349   4.5008   4.5008   4.6868   4.6868
     5.0181   5.0181   5.0873   5.0873   5.2204   5.2204   5.3634   5.3634
    22.6177  22.6177  22.9949  22.9949  23.1591  23.1591  23.4023  23.4023
    23.6775  23.6775  23.8304  23.8304  24.2043  24.2043  24.3240  24.3240
    24.8841  24.8841  25.0972  25.0972  25.9570  25.9570  26.1343  26.1343
    26.9550  26.9550  27.2954  27.2954  27.5579  27.5579  27.8621  27.8621
    28.3448  28.3448  28.7361  28.7361  29.1345  29.1345  29.4112  29.4112
    30.2251  30.2251  30.5568  30.5568  30.7499  30.7499  31.4796  31.4796
    31.7408  31.7408  32.1236  32.1236  32.8829  32.8829  33.3816  33.3817
    33.9583  33.9584  34.3568  34.3569  34.6584  34.6585

          k =-0.4324 0.2238-0.2312 (  5524 PWs)   bands (ev):

   -39.0072 -39.0072 -39.0047 -39.0047 -17.3425 -17.3425 -17.2516 -17.2516
   -17.0585 -17.0585 -16.9262 -16.9262 -10.3006 -10.3006 -10.2837 -10.2837
   -10.2267 -10.2267 -10.1783 -10.1783 -10.0748 -10.0748 -10.0399 -10.0399
     2.9589   2.9589   3.2939   3.2939   3.4346   3.4346   3.6233   3.6233
     3.6845   3.6845   4.2618   4.2618   4.5893   4.5893   4.8071   4.8071
     4.9751   4.9751   5.0064   5.0064   5.2215   5.2215   5.3298   5.3298
    22.6117  22.6117  22.9954  22.9954  23.1121  23.1121  23.4902  23.4902
    23.6996  23.6996  23.9039  23.9039  24.1148  24.1148  24.2741  24.2741
    24.9686  24.9686  25.1587  25.1587  26.2751  26.2751  26.4558  26.4558
    26.9452  26.9452  27.2634  27.2634  27.2927  27.2927  27.7087  27.7087
    28.0112  28.0112  28.8218  28.8218  29.0202  29.0202  29.6501  29.6501
    29.9463  29.9463  30.4754  30.4754  30.5786  30.5786  31.2740  31.2740
    31.4998  31.4998  31.9357  31.9357  32.7432  32.7432  33.6823  33.6824
    34.2066  34.2068  34.5769  34.5771  35.1791  35.1798

     the Fermi energy is    30.9287 ev

!    total energy              =   -1687.07368144 Ry
     Harris-Foulkes estimate   =   -1687.07368546 Ry
     estimated scf accuracy    <       0.00000573 Ry

     The total energy is the sum of the following terms:

     one-electron contribution =      81.96060169 Ry
     hartree contribution      =     145.27568056 Ry
     xc contribution           =    -190.09579373 Ry
     ewald contribution        =   -1723.63219602 Ry
     smearing contrib. (-TS)   =      -0.58197395 Ry

     convergence has been achieved in  11 iterations

     Forces acting on atoms (Ry/au):

     atom    1 type  1   force =     0.00000000   -0.03498418   -0.01846920
     atom    2 type  1   force =     0.00000000    0.03498418    0.01846920
     atom    3 type  1   force =     0.00000000   -0.03498418    0.01846920
     atom    4 type  1   force =     0.00000000    0.03498418   -0.01846920
     atom    5 type  1   force =     0.00000000    0.05616019   -0.07962208
     atom    6 type  1   force =     0.00000000   -0.05616019    0.07962208
     atom    7 type  1   force =     0.00000000    0.05616019    0.07962208
     atom    8 type  1   force =     0.00000000   -0.05616019   -0.07962208
     atom    9 type  2   force =     0.00000000   -0.03023878   -0.01523421
     atom   10 type  2   force =     0.00000000    0.03023878    0.01523421
     atom   11 type  2   force =     0.00000000   -0.03023878    0.01523421
     atom   12 type  2   force =     0.00000000    0.03023878   -0.01523421

     Total force =     0.220953     Total SCF correction =     0.000000


     entering subroutine stress ...

          total   stress  (Ry/bohr**3)                   (kbar)     P= 1124.47
   0.00822022   0.00000000   0.00000000       1209.24      0.00      0.00
   0.00000000   0.00717790   0.00000000          0.00   1055.91      0.00
   0.00000000   0.00000000   0.00753386          0.00      0.00   1108.27


     Writing output data file Prototype-La-oP12-Co2Si.save
 
     init_run     :      3.59s CPU      4.46s WALL (       2 calls)
     electrons    :    674.79s CPU    808.14s WALL (       5 calls)
     update_pot   :      1.85s CPU      1.87s WALL (       3 calls)
     forces       :      3.60s CPU      3.80s WALL (       5 calls)
     stress       :      8.13s CPU      8.34s WALL (       5 calls)

     Called by init_run:
     wfcinit      :      2.74s CPU      3.56s WALL (       2 calls)
     potinit      :      0.41s CPU      0.41s WALL (       2 calls)

     Called by electrons:
     c_bands      :    655.46s CPU    746.82s WALL (      58 calls)
     sum_band     :     18.77s CPU     25.56s WALL (      58 calls)
     v_of_rho     :      0.08s CPU      0.09s WALL (      63 calls)
     mix_rho      :      0.08s CPU      0.10s WALL (      58 calls)

     Called by c_bands:
     init_us_2    :      1.32s CPU      1.61s WALL (    1536 calls)
     ccgdiagg     :    586.91s CPU    659.41s WALL (     769 calls)
     wfcrot       :     69.83s CPU     88.27s WALL (     781 calls)

     Called by *cgdiagg:
     h_psi        :    427.74s CPU    502.51s WALL (  408989 calls)
     cdiaghg      :      3.48s CPU      3.81s WALL (     781 calls)

     Called by h_psi:
     add_vuspsi   :     61.66s CPU     70.40s WALL (  408989 calls)

     General routines
     calbec       :    186.06s CPU    193.52s WALL (  817317 calls)
     fft          :      0.12s CPU      0.14s WALL (     275 calls)
     fftw         :    259.22s CPU    308.18s WALL ( 1064796 calls)
     davcio       :      0.86s CPU      2.25s WALL (    2232 calls)
 
     Parallel routines
     fft_scatter  :    115.91s CPU    134.48s WALL ( 1065071 calls)
 
     PWSCF        : 11m32.37s CPU    13m51.62s WALL

 
   This run was terminated on:  17:46:52  22Mar2018            

=------------------------------------------------------------------------------=
   JOB DONE.
=------------------------------------------------------------------------------=
