
     Program PWSCF v.5.0.2 starts on 22Mar2018 at 17:33: 1 

     This program is part of the open-source Quantum ESPRESSO suite
     for quantum simulation of materials; please cite
         "P. Giannozzi et al., J. Phys.:Condens. Matter 21 395502 (2009);
          URL http://www.quantum-espresso.org", 
     in publications or presentations arising from this work. More details at
     http://www.quantum-espresso.org/quote.php

     Parallel version (MPI), running on     4 processors
     R & G space division:  proc/nbgrp/npool/nimage =       4

     Current dimensions of program PWSCF are:
     Max number of different atomic species (ntypx) = 10
     Max number of k-points (npk) =  40000
     Max angular momentum in pseudopotentials (lmaxx) =  3
     Waiting for input...
     Reading input from standard input

     Subspace diagonalization in iterative solution of the eigenvalue problem:
     a serial algorithm will be used

 
     Parallelization info
     --------------------
     sticks:   dense  smooth     PW     G-vecs:    dense   smooth      PW
     Min          93      93     30                 1717     1717     310
     Max          94      94     31                 1720     1720     313
     Sum         373     373    121                 6871     6871    1247
 


     bravais-lattice index     =            0
     lattice parameter (alat)  =       5.4125  a.u.
     unit-cell volume          =     202.7222 (a.u.)^3
     number of atoms/cell      =            2
     number of atomic types    =            2
     number of electrons       =        32.00
     number of Kohn-Sham states=           20
     kinetic-energy cutoff     =      40.0000  Ry
     charge density cutoff     =     160.0000  Ry
     convergence threshold     =      1.0E-04
     mixing beta               =       0.7000
     number of iterations used =            8  plain     mixing
     Exchange-correlation      = SLA-PZ-NOGX-NOGC ( 1 1 0 0 0)
     EXX-fraction              =        0.00
     nstep                     =           50


     celldm(1)=   5.412493  celldm(2)=   0.000000  celldm(3)=   0.000000
     celldm(4)=   0.000000  celldm(5)=   0.000000  celldm(6)=   0.000000

     crystal axes: (cart. coord. in units of alat)
               a(1) = (   1.000000   0.000000   0.000000 )  
               a(2) = (   0.000000   1.000000   0.000000 )  
               a(3) = (   0.000000   0.000000   1.278525 )  

     reciprocal axes: (cart. coord. in units 2 pi/alat)
               b(1) = (  1.000000  0.000000  0.000000 )  
               b(2) = (  0.000000  1.000000  0.000000 )  
               b(3) = (  0.000000  0.000000  0.782151 )  


     PseudoPot. # 1 for Nd read from file:
     /home/cwx6513/pp.La/Nd.UPF
     MD5 check sum: c66c5b6abe7b5840ced9b1e244e3bed6
     Pseudo is Norm-conserving, Zval = 14.0
     Generated in analytical, separable form
     Using radial grid of 1257 points,  6 beta functions with: 
                l(1) =   0
                l(2) =   0
                l(3) =   1
                l(4) =   1
                l(5) =   2
                l(6) =   3

     PseudoPot. # 2 for Gd read from file:
     /home/cwx6513/pp.La/Gd.UPF
     MD5 check sum: 09a8be538722f05520810cb6aac0efd2
     Pseudo is Norm-conserving, Zval = 18.0
     Generated in analytical, separable form
     Using radial grid of 1263 points,  6 beta functions with: 
                l(1) =   0
                l(2) =   0
                l(3) =   1
                l(4) =   1
                l(5) =   2
                l(6) =   3

     atomic species   valence    mass     pseudopotential
        Cu            14.00    63.54600     Nd( 1.00)
        Au            18.00   196.96600     Gd( 1.00)

     16 Sym. Ops., with inversion, found



   Cartesian axes

     site n.     atom                  positions (alat units)
         1           Cu  tau(   1) = (   0.5000000   0.5000000   0.6392626  )
         2           Au  tau(   2) = (   0.0000000   0.0000000   0.0000000  )

     number of k points=   100  gaussian smearing, width (Ry)=  0.1000

     Number of k-points >= 100: set verbosity='high' to print them.

     Dense  grid:     6871 G-vectors     FFT dimensions: (  24,  24,  27)

     Largest allocated arrays     est. size (Mb)     dimensions
        Kohn-Sham Wavefunctions         0.07 Mb     (    228,   20)
        NL pseudopotentials             0.14 Mb     (    228,   40)
        Each V/rho on FFT grid          0.06 Mb     (   4032)
        Each G-vector array             0.01 Mb     (   1720)
        G-vector shells                 0.01 Mb     (   1720)
     Largest temporary arrays     est. size (Mb)     dimensions
        Each subspace H/S matrix        0.01 Mb     (  20,  20)
        Each <psi_i|beta_j> matrix      0.01 Mb     (     40,   20)
        Arrays for rho mixing           0.49 Mb     (   4032,   8)

     Initial potential from superposition of free atoms

     Starting from uniform charge
     Starting wfc are    0 randomized atomic wfcs

     total cpu time spent up to now is        2.0 secs

     Self-consistent Calculation

     iteration #  1     ecut=    40.00 Ry     beta=0.70
     CG style diagonalization
     c_bands:  1 eigenvalues not converged
     c_bands:  1 eigenvalues not converged
     ethr =  1.00E-02,  avg # of iterations = 10.6

     total cpu time spent up to now is        7.3 secs

     total energy              =    -252.82356568 Ry
     Harris-Foulkes estimate   =    -357.68278734 Ry
     estimated scf accuracy    <     133.16640963 Ry

     iteration #  2     ecut=    40.00 Ry     beta=0.70
     CG style diagonalization
     c_bands:  1 eigenvalues not converged
     c_bands:  1 eigenvalues not converged
     c_bands:  1 eigenvalues not converged
     c_bands:  1 eigenvalues not converged
     c_bands:  2 eigenvalues not converged
     c_bands:  1 eigenvalues not converged
     c_bands:  1 eigenvalues not converged
     ethr =  1.00E-02,  avg # of iterations = 10.6

     total cpu time spent up to now is       11.0 secs

     total energy              =    -283.64480003 Ry
     Harris-Foulkes estimate   =    -348.57926968 Ry
     estimated scf accuracy    <     115.94979525 Ry

     iteration #  3     ecut=    40.00 Ry     beta=0.70
     CG style diagonalization
     c_bands:  1 eigenvalues not converged
     ethr =  1.00E-02,  avg # of iterations =  9.0

     total cpu time spent up to now is       14.3 secs

     total energy              =    -310.36143261 Ry
     Harris-Foulkes estimate   =    -313.83224661 Ry
     estimated scf accuracy    <       6.68270213 Ry

     iteration #  4     ecut=    40.00 Ry     beta=0.70
     CG style diagonalization
     ethr =  1.00E-02,  avg # of iterations =  3.8

     total cpu time spent up to now is       15.8 secs

     total energy              =    -311.35214023 Ry
     Harris-Foulkes estimate   =    -311.49128831 Ry
     estimated scf accuracy    <       0.25660474 Ry

     iteration #  5     ecut=    40.00 Ry     beta=0.70
     CG style diagonalization
     ethr =  8.02E-04,  avg # of iterations =  4.5

     total cpu time spent up to now is       17.3 secs

     total energy              =    -311.41862058 Ry
     Harris-Foulkes estimate   =    -311.44344634 Ry
     estimated scf accuracy    <       0.04075499 Ry

     iteration #  6     ecut=    40.00 Ry     beta=0.70
     CG style diagonalization
     c_bands:  1 eigenvalues not converged
     ethr =  1.27E-04,  avg # of iterations =  4.2

     total cpu time spent up to now is       18.8 secs

     total energy              =    -311.43013144 Ry
     Harris-Foulkes estimate   =    -311.43503462 Ry
     estimated scf accuracy    <       0.00834459 Ry

     iteration #  7     ecut=    40.00 Ry     beta=0.70
     CG style diagonalization
     c_bands:  1 eigenvalues not converged
     c_bands:  1 eigenvalues not converged
     c_bands:  1 eigenvalues not converged
     c_bands:  1 eigenvalues not converged
     ethr =  2.61E-05,  avg # of iterations =  3.9

     total cpu time spent up to now is       20.2 secs

     total energy              =    -311.43166157 Ry
     Harris-Foulkes estimate   =    -311.43185277 Ry
     estimated scf accuracy    <       0.00025949 Ry

     iteration #  8     ecut=    40.00 Ry     beta=0.70
     CG style diagonalization
     c_bands:  1 eigenvalues not converged
     c_bands:  1 eigenvalues not converged
     c_bands:  1 eigenvalues not converged
     c_bands:  1 eigenvalues not converged
     c_bands:  1 eigenvalues not converged
     ethr =  8.11E-07,  avg # of iterations =  4.9

     total cpu time spent up to now is       21.8 secs

     End of self-consistent calculation

     Number of k-points >= 100: set verbosity='high' to print the bands.

     the Fermi energy is    33.1796 ev

!    total energy              =    -311.43180091 Ry
     Harris-Foulkes estimate   =    -311.43186959 Ry
     estimated scf accuracy    <       0.00007857 Ry

     The total energy is the sum of the following terms:

     one-electron contribution =      16.08052059 Ry
     hartree contribution      =      26.45423867 Ry
     xc contribution           =     -34.12282471 Ry
     ewald contribution        =    -319.75045224 Ry
     smearing contrib. (-TS)   =      -0.09328322 Ry

     convergence has been achieved in   8 iterations

     Forces acting on atoms (Ry/au):

     atom    1 type  1   force =     0.00000000    0.00000000    0.00000000
     atom    2 type  2   force =     0.00000000    0.00000000    0.00000000

     Total force =     0.000000     Total SCF correction =     0.000000


     entering subroutine stress ...

          total   stress  (Ry/bohr**3)                   (kbar)     P= 1346.41
   0.00838407   0.00000000   0.00000000       1233.34      0.00      0.00
   0.00000000   0.00838407   0.00000000          0.00   1233.34      0.00
   0.00000000   0.00000000   0.01069002          0.00      0.00   1572.56


     BFGS Geometry Optimization

     number of scf cycles    =   1
     number of bfgs steps    =   0

     enthalpy new            =    -311.4318009109 Ry

     new trust radius        =       0.5000000000 bohr
     new conv_thr            =       0.0001000000 Ry

     new unit-cell volume =    308.47418 a.u.^3 (    45.71116 Ang^3 )

CELL_PARAMETERS (alat=  5.41249258)
   1.137710173   0.000000000   0.000000000
   0.000000000   1.137710173   0.000000000
   0.000000000   0.000000000   1.503015978

ATOMIC_POSITIONS (crystal)
Cu       0.500000000   0.500000000   0.500000000
Au       0.000000000   0.000000000   0.000000000



     Writing output data file Prototype-La-tP2-AuCu.save
     NEW-OLD atomic charge density approx. for the potential
     NEW k-points: (use verbosity='high' to print them)

     total cpu time spent up to now is       22.6 secs

     Self-consistent Calculation

     iteration #  1     ecut=    40.00 Ry     beta=0.70
     CG style diagonalization
     c_bands:  1 eigenvalues not converged
     c_bands:  1 eigenvalues not converged
     c_bands:  3 eigenvalues not converged
     c_bands:  1 eigenvalues not converged
     c_bands:  4 eigenvalues not converged
     c_bands:  2 eigenvalues not converged
     c_bands:  1 eigenvalues not converged
     c_bands:  2 eigenvalues not converged
     c_bands:  1 eigenvalues not converged
     c_bands:  1 eigenvalues not converged
     c_bands:  4 eigenvalues not converged
     c_bands:  1 eigenvalues not converged
     c_bands:  1 eigenvalues not converged
     c_bands:  3 eigenvalues not converged
     c_bands:  1 eigenvalues not converged
     c_bands:  1 eigenvalues not converged
     c_bands:  3 eigenvalues not converged
     c_bands:  1 eigenvalues not converged
     c_bands:  4 eigenvalues not converged
     c_bands:  3 eigenvalues not converged
     c_bands:  1 eigenvalues not converged
     c_bands:  3 eigenvalues not converged
     c_bands:  5 eigenvalues not converged
     c_bands:  5 eigenvalues not converged
     c_bands:  5 eigenvalues not converged
     c_bands:  2 eigenvalues not converged
     c_bands:  5 eigenvalues not converged
     c_bands:  5 eigenvalues not converged
     c_bands:  5 eigenvalues not converged
     c_bands:  3 eigenvalues not converged
     c_bands:  1 eigenvalues not converged
     c_bands:  2 eigenvalues not converged
     c_bands:  3 eigenvalues not converged
     c_bands:  4 eigenvalues not converged
     c_bands:  1 eigenvalues not converged
     c_bands:  1 eigenvalues not converged
     c_bands:  1 eigenvalues not converged
     c_bands:  2 eigenvalues not converged
     c_bands:  3 eigenvalues not converged
     c_bands:  1 eigenvalues not converged
     c_bands:  4 eigenvalues not converged
     c_bands:  5 eigenvalues not converged
     c_bands:  4 eigenvalues not converged
     c_bands:  2 eigenvalues not converged
     c_bands:  5 eigenvalues not converged
     c_bands:  5 eigenvalues not converged
     c_bands:  5 eigenvalues not converged
     c_bands:  4 eigenvalues not converged
     c_bands:  2 eigenvalues not converged
     c_bands:  5 eigenvalues not converged
     c_bands:  5 eigenvalues not converged
     c_bands:  3 eigenvalues not converged
     c_bands:  1 eigenvalues not converged
     c_bands:  4 eigenvalues not converged
     c_bands:  4 eigenvalues not converged
     c_bands:  2 eigenvalues not converged
     c_bands:  2 eigenvalues not converged
     c_bands:  1 eigenvalues not converged
     c_bands:  2 eigenvalues not converged
     c_bands:  1 eigenvalues not converged
     c_bands:  1 eigenvalues not converged
     c_bands:  3 eigenvalues not converged
     c_bands:  2 eigenvalues not converged
     c_bands:  5 eigenvalues not converged
     c_bands:  4 eigenvalues not converged
     c_bands:  5 eigenvalues not converged
     c_bands:  3 eigenvalues not converged
     c_bands:  2 eigenvalues not converged
     c_bands:  4 eigenvalues not converged
     c_bands:  4 eigenvalues not converged
     c_bands:  3 eigenvalues not converged
     c_bands:  5 eigenvalues not converged
     c_bands:  5 eigenvalues not converged
     c_bands:  1 eigenvalues not converged
     c_bands:  4 eigenvalues not converged
     c_bands:  4 eigenvalues not converged
     c_bands:  3 eigenvalues not converged
     ethr =  1.00E-06,  avg # of iterations = 14.4

     total cpu time spent up to now is       27.8 secs

     total energy              =    -306.25378098 Ry
     Harris-Foulkes estimate   =    -317.51058175 Ry
     estimated scf accuracy    <      14.50815196 Ry

     iteration #  2     ecut=    40.00 Ry     beta=0.70
     CG style diagonalization
     ethr =  1.00E-02,  avg # of iterations =  4.4

     total cpu time spent up to now is       29.4 secs

     total energy              =    -305.62493366 Ry
     Harris-Foulkes estimate   =    -314.62344339 Ry
     estimated scf accuracy    <      17.45776887 Ry

     iteration #  3     ecut=    40.00 Ry     beta=0.70
     CG style diagonalization
     ethr =  1.00E-02,  avg # of iterations =  4.5

     total cpu time spent up to now is       30.9 secs

     total energy              =    -311.06888071 Ry
     Harris-Foulkes estimate   =    -313.31287658 Ry
     estimated scf accuracy    <       6.20608562 Ry

     iteration #  4     ecut=    40.00 Ry     beta=0.70
     CG style diagonalization
     ethr =  1.00E-02,  avg # of iterations =  3.3

     total cpu time spent up to now is       32.1 secs

     total energy              =    -311.37113231 Ry
     Harris-Foulkes estimate   =    -311.58715118 Ry
     estimated scf accuracy    <       0.88958431 Ry

     iteration #  5     ecut=    40.00 Ry     beta=0.70
     CG style diagonalization
     ethr =  2.78E-03,  avg # of iterations =  3.2

     total cpu time spent up to now is       33.2 secs

     total energy              =    -311.39903755 Ry
     Harris-Foulkes estimate   =    -311.45765050 Ry
     estimated scf accuracy    <       0.16004466 Ry

     iteration #  6     ecut=    40.00 Ry     beta=0.70
     CG style diagonalization
     ethr =  5.00E-04,  avg # of iterations =  3.8

     total cpu time spent up to now is       34.5 secs

     total energy              =    -311.44281013 Ry
     Harris-Foulkes estimate   =    -311.45010309 Ry
     estimated scf accuracy    <       0.01437385 Ry

     iteration #  7     ecut=    40.00 Ry     beta=0.70
     CG style diagonalization
     ethr =  4.49E-05,  avg # of iterations =  3.7

     total cpu time spent up to now is       35.8 secs

     total energy              =    -311.44815377 Ry
     Harris-Foulkes estimate   =    -311.44915676 Ry
     estimated scf accuracy    <       0.00514205 Ry

     iteration #  8     ecut=    40.00 Ry     beta=0.70
     CG style diagonalization
     ethr =  1.61E-05,  avg # of iterations =  3.0

     total cpu time spent up to now is       36.8 secs

     total energy              =    -311.44788258 Ry
     Harris-Foulkes estimate   =    -311.44839896 Ry
     estimated scf accuracy    <       0.00160533 Ry

     iteration #  9     ecut=    40.00 Ry     beta=0.70
     CG style diagonalization
     ethr =  5.02E-06,  avg # of iterations =  3.4

     total cpu time spent up to now is       37.9 secs

     End of self-consistent calculation

     Number of k-points >= 100: set verbosity='high' to print the bands.

     the Fermi energy is    20.0421 ev

!    total energy              =    -311.44817715 Ry
     Harris-Foulkes estimate   =    -311.44818821 Ry
     estimated scf accuracy    <       0.00001314 Ry

     The total energy is the sum of the following terms:

     one-electron contribution =     -41.60238630 Ry
     hartree contribution      =      41.02166612 Ry
     xc contribution           =     -32.76363150 Ry
     ewald contribution        =    -277.96210384 Ry
     smearing contrib. (-TS)   =      -0.14172163 Ry

     convergence has been achieved in   9 iterations

     Forces acting on atoms (Ry/au):

     atom    1 type  1   force =     0.00000000    0.00000000    0.00000000
     atom    2 type  2   force =     0.00000000    0.00000000    0.00000000

     Total force =     0.000000     Total SCF correction =     0.000000


     entering subroutine stress ...

          total   stress  (Ry/bohr**3)                   (kbar)     P= -750.88
  -0.00513136   0.00000000   0.00000000       -754.85      0.00      0.00
   0.00000000  -0.00513136   0.00000000          0.00   -754.85      0.00
   0.00000000   0.00000000  -0.00505047          0.00      0.00   -742.95


     number of scf cycles    =   2
     number of bfgs steps    =   1

     enthalpy old            =    -311.4318009109 Ry
     enthalpy new            =    -311.4481771544 Ry

     CASE: enthalpy_new < enthalpy_old

     small trust_radius: resetting bfgs history

     new trust radius        =       0.4506215334 bohr
     new conv_thr            =       0.0000010000 Ry

     new unit-cell volume =    204.80957 a.u.^3 (    30.34965 Ang^3 )

CELL_PARAMETERS (alat=  5.41249258)
   0.991760146   0.000000000   0.000000000
   0.000000000   0.991760146   0.000000000
   0.000000000   0.000000000   1.313242697

ATOMIC_POSITIONS (crystal)
Cu       0.500000000   0.500000000   0.500000000
Au       0.000000000   0.000000000   0.000000000



     Writing output data file Prototype-La-tP2-AuCu.save
     NEW-OLD atomic charge density approx. for the potential
     NEW k-points: (use verbosity='high' to print them)

     total cpu time spent up to now is       38.6 secs

     Self-consistent Calculation

     iteration #  1     ecut=    40.00 Ry     beta=0.70
     CG style diagonalization
     c_bands:  1 eigenvalues not converged
     c_bands:  1 eigenvalues not converged
     c_bands:  3 eigenvalues not converged
     c_bands:  2 eigenvalues not converged
     c_bands:  4 eigenvalues not converged
     c_bands:  2 eigenvalues not converged
     c_bands:  2 eigenvalues not converged
     c_bands:  4 eigenvalues not converged
     c_bands:  4 eigenvalues not converged
     c_bands:  1 eigenvalues not converged
     c_bands:  5 eigenvalues not converged
     c_bands:  4 eigenvalues not converged
     c_bands:  4 eigenvalues not converged
     c_bands:  2 eigenvalues not converged
     c_bands:  1 eigenvalues not converged
     c_bands:  1 eigenvalues not converged
     c_bands:  1 eigenvalues not converged
     c_bands:  1 eigenvalues not converged
     c_bands:  1 eigenvalues not converged
     c_bands:  3 eigenvalues not converged
     c_bands:  2 eigenvalues not converged
     c_bands:  3 eigenvalues not converged
     c_bands:  4 eigenvalues not converged
     c_bands:  5 eigenvalues not converged
     c_bands:  5 eigenvalues not converged
     c_bands:  5 eigenvalues not converged
     c_bands:  2 eigenvalues not converged
     c_bands:  5 eigenvalues not converged
     c_bands:  1 eigenvalues not converged
     c_bands:  2 eigenvalues not converged
     c_bands:  1 eigenvalues not converged
     c_bands:  2 eigenvalues not converged
     c_bands:  4 eigenvalues not converged
     c_bands:  2 eigenvalues not converged
     c_bands:  1 eigenvalues not converged
     c_bands:  3 eigenvalues not converged
     c_bands:  3 eigenvalues not converged
     c_bands:  5 eigenvalues not converged
     c_bands:  2 eigenvalues not converged
     c_bands:  4 eigenvalues not converged
     c_bands:  2 eigenvalues not converged
     c_bands:  5 eigenvalues not converged
     c_bands:  1 eigenvalues not converged
     c_bands:  2 eigenvalues not converged
     c_bands:  2 eigenvalues not converged
     c_bands:  4 eigenvalues not converged
     c_bands:  1 eigenvalues not converged
     c_bands:  1 eigenvalues not converged
     c_bands:  3 eigenvalues not converged
     c_bands:  4 eigenvalues not converged
     c_bands:  3 eigenvalues not converged
     c_bands:  4 eigenvalues not converged
     c_bands:  2 eigenvalues not converged
     c_bands:  1 eigenvalues not converged
     c_bands:  5 eigenvalues not converged
     c_bands:  4 eigenvalues not converged
     c_bands:  5 eigenvalues not converged
     c_bands:  1 eigenvalues not converged
     c_bands:  3 eigenvalues not converged
     c_bands:  3 eigenvalues not converged
     c_bands:  4 eigenvalues not converged
     c_bands:  4 eigenvalues not converged
     ethr =  1.00E-06,  avg # of iterations = 16.5

     total cpu time spent up to now is       44.0 secs

     total energy              =    -307.23473597 Ry
     Harris-Foulkes estimate   =    -317.04998615 Ry
     estimated scf accuracy    <      12.40846975 Ry

     iteration #  2     ecut=    40.00 Ry     beta=0.70
     CG style diagonalization
     ethr =  1.00E-02,  avg # of iterations =  4.6

     total cpu time spent up to now is       45.6 secs

     total energy              =    -309.60547078 Ry
     Harris-Foulkes estimate   =    -313.77816043 Ry
     estimated scf accuracy    <       6.91653711 Ry

     iteration #  3     ecut=    40.00 Ry     beta=0.70
     CG style diagonalization
     ethr =  1.00E-02,  avg # of iterations =  3.7

     total cpu time spent up to now is       46.9 secs

     total energy              =    -311.26324086 Ry
     Harris-Foulkes estimate   =    -311.61608172 Ry
     estimated scf accuracy    <       0.69480502 Ry

     iteration #  4     ecut=    40.00 Ry     beta=0.70
     CG style diagonalization
     ethr =  2.17E-03,  avg # of iterations =  3.5

     total cpu time spent up to now is       48.0 secs

     total energy              =    -311.45026294 Ry
     Harris-Foulkes estimate   =    -311.46870824 Ry
     estimated scf accuracy    <       0.03576379 Ry

     iteration #  5     ecut=    40.00 Ry     beta=0.70
     CG style diagonalization
     ethr =  1.12E-04,  avg # of iterations =  3.9

     total cpu time spent up to now is       49.3 secs

     total energy              =    -311.45976045 Ry
     Harris-Foulkes estimate   =    -311.46012102 Ry
     estimated scf accuracy    <       0.00081216 Ry

     iteration #  6     ecut=    40.00 Ry     beta=0.70
     CG style diagonalization
     c_bands:  1 eigenvalues not converged
     c_bands:  1 eigenvalues not converged
     c_bands:  1 eigenvalues not converged
     c_bands:  1 eigenvalues not converged
     c_bands:  1 eigenvalues not converged
     c_bands:  1 eigenvalues not converged
     ethr =  2.54E-06,  avg # of iterations =  5.1

     total cpu time spent up to now is       51.0 secs

     total energy              =    -311.46025313 Ry
     Harris-Foulkes estimate   =    -311.46039772 Ry
     estimated scf accuracy    <       0.00041875 Ry

     iteration #  7     ecut=    40.00 Ry     beta=0.70
     CG style diagonalization
     ethr =  1.31E-06,  avg # of iterations =  3.1

     total cpu time spent up to now is       52.0 secs

     total energy              =    -311.46028526 Ry
     Harris-Foulkes estimate   =    -311.46030006 Ry
     estimated scf accuracy    <       0.00003328 Ry

     iteration #  8     ecut=    40.00 Ry     beta=0.70
     CG style diagonalization
     ethr =  1.04E-07,  avg # of iterations =  3.8

     total cpu time spent up to now is       53.4 secs

     total energy              =    -311.46029681 Ry
     Harris-Foulkes estimate   =    -311.46029764 Ry
     estimated scf accuracy    <       0.00000168 Ry

     iteration #  9     ecut=    40.00 Ry     beta=0.70
     CG style diagonalization
     ethr =  5.25E-09,  avg # of iterations =  4.2

     total cpu time spent up to now is       54.8 secs

     End of self-consistent calculation

     Number of k-points >= 100: set verbosity='high' to print the bands.

     the Fermi energy is    32.8017 ev

!    total energy              =    -311.46029768 Ry
     Harris-Foulkes estimate   =    -311.46029772 Ry
     estimated scf accuracy    <       0.00000004 Ry

     The total energy is the sum of the following terms:

     one-electron contribution =      14.47146799 Ry
     hartree contribution      =      26.86363475 Ry
     xc contribution           =     -34.08504485 Ry
     ewald contribution        =    -318.61855284 Ry
     smearing contrib. (-TS)   =      -0.09180273 Ry

     convergence has been achieved in   9 iterations

     Forces acting on atoms (Ry/au):

     atom    1 type  1   force =     0.00000000    0.00000000    0.00000000
     atom    2 type  2   force =     0.00000000    0.00000000    0.00000000

     Total force =     0.000000     Total SCF correction =     0.000000


     entering subroutine stress ...

          total   stress  (Ry/bohr**3)                   (kbar)     P= 1288.01
   0.00821730   0.00000000   0.00000000       1208.81      0.00      0.00
   0.00000000   0.00821730   0.00000000          0.00   1208.81      0.00
   0.00000000   0.00000000   0.00983259          0.00      0.00   1446.42


     number of scf cycles    =   3
     number of bfgs steps    =   2

     enthalpy old            =    -311.4481771544 Ry
     enthalpy new            =    -311.4602976791 Ry

     CASE: enthalpy_new < enthalpy_old

     Message from routine bfgs:
     history already reset at previous step: stopping
     small trust_radius: resetting bfgs history

     new trust radius        =       0.7035796283 bohr
     new conv_thr            =       0.0000010000 Ry

     new unit-cell volume =    370.75712 a.u.^3 (    54.94054 Ang^3 )

CELL_PARAMETERS (alat=  5.41249258)
   1.195499845   0.000000000   0.000000000
   0.000000000   1.195499845   0.000000000
   0.000000000   0.000000000   1.636057275

ATOMIC_POSITIONS (crystal)
Cu       0.500000000   0.500000000   0.500000000
Au       0.000000000   0.000000000   0.000000000



     Writing output data file Prototype-La-tP2-AuCu.save
     NEW-OLD atomic charge density approx. for the potential
     NEW k-points: (use verbosity='high' to print them)

     total cpu time spent up to now is       55.5 secs

     Self-consistent Calculation

     iteration #  1     ecut=    40.00 Ry     beta=0.70
     CG style diagonalization
     c_bands:  2 eigenvalues not converged
     c_bands:  2 eigenvalues not converged
     c_bands:  2 eigenvalues not converged
     c_bands:  2 eigenvalues not converged
     c_bands:  3 eigenvalues not converged
     c_bands:  4 eigenvalues not converged
     c_bands:  4 eigenvalues not converged
     c_bands:  4 eigenvalues not converged
     c_bands:  4 eigenvalues not converged
     c_bands:  3 eigenvalues not converged
     c_bands:  5 eigenvalues not converged
     c_bands:  4 eigenvalues not converged
     c_bands:  1 eigenvalues not converged
     c_bands:  3 eigenvalues not converged
     c_bands:  4 eigenvalues not converged
     c_bands:  3 eigenvalues not converged
     c_bands:  3 eigenvalues not converged
     c_bands:  1 eigenvalues not converged
     c_bands:  1 eigenvalues not converged
     c_bands:  1 eigenvalues not converged
     c_bands:  1 eigenvalues not converged
     c_bands:  3 eigenvalues not converged
     c_bands:  4 eigenvalues not converged
     c_bands:  5 eigenvalues not converged
     c_bands:  4 eigenvalues not converged
     c_bands:  4 eigenvalues not converged
     c_bands:  4 eigenvalues not converged
     c_bands:  5 eigenvalues not converged
     c_bands:  5 eigenvalues not converged
     c_bands:  2 eigenvalues not converged
     c_bands:  2 eigenvalues not converged
     c_bands:  1 eigenvalues not converged
     c_bands:  2 eigenvalues not converged
     c_bands:  1 eigenvalues not converged
     c_bands:  2 eigenvalues not converged
     c_bands:  5 eigenvalues not converged
     c_bands:  2 eigenvalues not converged
     c_bands:  1 eigenvalues not converged
     c_bands:  5 eigenvalues not converged
     c_bands:  4 eigenvalues not converged
     c_bands:  5 eigenvalues not converged
     c_bands:  1 eigenvalues not converged
     c_bands:  2 eigenvalues not converged
     c_bands:  4 eigenvalues not converged
     c_bands:  4 eigenvalues not converged
     c_bands:  1 eigenvalues not converged
     c_bands:  4 eigenvalues not converged
     c_bands:  3 eigenvalues not converged
     c_bands:  4 eigenvalues not converged
     c_bands:  3 eigenvalues not converged
     c_bands:  5 eigenvalues not converged
     c_bands:  4 eigenvalues not converged
     c_bands:  1 eigenvalues not converged
     c_bands:  5 eigenvalues not converged
     c_bands:  2 eigenvalues not converged
     c_bands:  1 eigenvalues not converged
     c_bands:  2 eigenvalues not converged
     c_bands:  2 eigenvalues not converged
     c_bands:  3 eigenvalues not converged
     ethr =  1.00E-06,  avg # of iterations = 17.2

     total cpu time spent up to now is       61.1 secs

     total energy              =    -302.34980823 Ry
     Harris-Foulkes estimate   =    -323.02388345 Ry
     estimated scf accuracy    <      26.91795067 Ry

     iteration #  2     ecut=    40.00 Ry     beta=0.70
     CG style diagonalization
     ethr =  1.00E-02,  avg # of iterations =  4.9

     total cpu time spent up to now is       62.8 secs

     total energy              =    -305.42897164 Ry
     Harris-Foulkes estimate   =    -314.00519621 Ry
     estimated scf accuracy    <      14.34422426 Ry

     iteration #  3     ecut=    40.00 Ry     beta=0.70
     CG style diagonalization
     ethr =  1.00E-02,  avg # of iterations =  4.6

     total cpu time spent up to now is       64.3 secs

     total energy              =    -310.54954132 Ry
     Harris-Foulkes estimate   =    -314.30055605 Ry
     estimated scf accuracy    <      10.95103331 Ry

     iteration #  4     ecut=    40.00 Ry     beta=0.70
     CG style diagonalization
     ethr =  1.00E-02,  avg # of iterations =  3.5

     total cpu time spent up to now is       65.5 secs

     total energy              =    -310.94518754 Ry
     Harris-Foulkes estimate   =    -311.37150752 Ry
     estimated scf accuracy    <       1.77496112 Ry

     iteration #  5     ecut=    40.00 Ry     beta=0.70
     CG style diagonalization
     ethr =  5.55E-03,  avg # of iterations =  3.1

     total cpu time spent up to now is       66.6 secs

     total energy              =    -310.98258357 Ry
     Harris-Foulkes estimate   =    -311.08583726 Ry
     estimated scf accuracy    <       0.38254424 Ry

     iteration #  6     ecut=    40.00 Ry     beta=0.70
     CG style diagonalization
     ethr =  1.20E-03,  avg # of iterations =  3.7

     total cpu time spent up to now is       67.8 secs

     total energy              =    -311.06057840 Ry
     Harris-Foulkes estimate   =    -311.06152545 Ry
     estimated scf accuracy    <       0.00373293 Ry

     iteration #  7     ecut=    40.00 Ry     beta=0.70
     CG style diagonalization
     c_bands:  1 eigenvalues not converged
     c_bands:  1 eigenvalues not converged
     ethr =  1.17E-05,  avg # of iterations =  5.0

     total cpu time spent up to now is       69.7 secs

     total energy              =    -311.05178831 Ry
     Harris-Foulkes estimate   =    -311.08285335 Ry
     estimated scf accuracy    <       0.11499628 Ry

     iteration #  8     ecut=    40.00 Ry     beta=0.70
     CG style diagonalization
     ethr =  1.17E-05,  avg # of iterations =  4.2

     total cpu time spent up to now is       71.1 secs

     total energy              =    -311.06353725 Ry
     Harris-Foulkes estimate   =    -311.06393753 Ry
     estimated scf accuracy    <       0.00093657 Ry

     iteration #  9     ecut=    40.00 Ry     beta=0.70
     CG style diagonalization
     ethr =  2.93E-06,  avg # of iterations =  3.6

     total cpu time spent up to now is       72.3 secs

     total energy              =    -311.06371444 Ry
     Harris-Foulkes estimate   =    -311.06394009 Ry
     estimated scf accuracy    <       0.00060309 Ry

     iteration # 10     ecut=    40.00 Ry     beta=0.70
     CG style diagonalization
     ethr =  1.88E-06,  avg # of iterations =  3.2

     total cpu time spent up to now is       73.4 secs

     total energy              =    -311.06383257 Ry
     Harris-Foulkes estimate   =    -311.06386771 Ry
     estimated scf accuracy    <       0.00009671 Ry

     iteration # 11     ecut=    40.00 Ry     beta=0.70
     CG style diagonalization
     ethr =  3.02E-07,  avg # of iterations =  3.1

     total cpu time spent up to now is       74.5 secs

     total energy              =    -311.06385192 Ry
     Harris-Foulkes estimate   =    -311.06385367 Ry
     estimated scf accuracy    <       0.00000586 Ry

     iteration # 12     ecut=    40.00 Ry     beta=0.70
     CG style diagonalization
     ethr =  1.83E-08,  avg # of iterations =  3.4

     total cpu time spent up to now is       75.6 secs

     End of self-consistent calculation

     Number of k-points >= 100: set verbosity='high' to print the bands.

     the Fermi energy is    15.7381 ev

!    total energy              =    -311.06385322 Ry
     Harris-Foulkes estimate   =    -311.06385326 Ry
     estimated scf accuracy    <       0.00000004 Ry

     The total energy is the sum of the following terms:

     one-electron contribution =     -65.43921811 Ry
     hartree contribution      =      48.32792575 Ry
     xc contribution           =     -32.38320590 Ry
     ewald contribution        =    -261.39318006 Ry
     smearing contrib. (-TS)   =      -0.17617490 Ry

     convergence has been achieved in  12 iterations

     Forces acting on atoms (Ry/au):

     atom    1 type  1   force =     0.00000000    0.00000000    0.00000000
     atom    2 type  2   force =     0.00000000    0.00000000    0.00000000

     Total force =     0.000000     Total SCF correction =     0.000000


     entering subroutine stress ...

          total   stress  (Ry/bohr**3)                   (kbar)     P=-1007.53
  -0.00659450   0.00000000   0.00000000       -970.08      0.00      0.00
   0.00000000  -0.00659450   0.00000000          0.00   -970.08      0.00
   0.00000000   0.00000000  -0.00735819          0.00      0.00  -1082.43


     The maximum number of steps has been reached.

     End of BFGS Geometry Optimization
Begin final coordinates
     new unit-cell volume =    370.75712 a.u.^3 (    54.94054 Ang^3 )

CELL_PARAMETERS (alat=  5.41249258)
   1.195499845   0.000000000   0.000000000
   0.000000000   1.195499845   0.000000000
   0.000000000   0.000000000   1.636057275

ATOMIC_POSITIONS (crystal)
Cu       0.500000000   0.500000000   0.500000000
Au       0.000000000   0.000000000   0.000000000
End final coordinates



     A final scf calculation at the relaxed structure.
     The G-vectors are recalculated for the final unit cell
     Results may differ from those at the preceding step.
 
     Parallelization info
     --------------------
     sticks:   dense  smooth     PW     G-vecs:    dense   smooth      PW
     Min         132     132     41                 3150     3150     544
     Max         133     133     43                 3152     3152     545
     Sum         529     529    169                12603    12603    2179
 


     bravais-lattice index     =            0
     lattice parameter (alat)  =       5.4125  a.u.
     unit-cell volume          =     370.7571 (a.u.)^3
     number of atoms/cell      =            2
     number of atomic types    =            2
     number of electrons       =        32.00
     number of Kohn-Sham states=           20
     kinetic-energy cutoff     =      40.0000  Ry
     charge density cutoff     =     160.0000  Ry
     convergence threshold     =      1.0E-06
     mixing beta               =       0.7000
     number of iterations used =            8  plain     mixing
     Exchange-correlation      = SLA-PZ-NOGX-NOGC ( 1 1 0 0 0)
     EXX-fraction              =        0.00

     celldm(1)=   5.412493  celldm(2)=   0.000000  celldm(3)=   0.000000
     celldm(4)=   0.000000  celldm(5)=   0.000000  celldm(6)=   0.000000

     crystal axes: (cart. coord. in units of alat)
               a(1) = (   1.195500   0.000000   0.000000 )  
               a(2) = (   0.000000   1.195500   0.000000 )  
               a(3) = (   0.000000   0.000000   1.636057 )  

     reciprocal axes: (cart. coord. in units 2 pi/alat)
               b(1) = (  0.836470  0.000000  0.000000 )  
               b(2) = (  0.000000  0.836470  0.000000 )  
               b(3) = (  0.000000  0.000000  0.611226 )  


     PseudoPot. # 1 for Nd read from file:
     /home/cwx6513/pp.La/Nd.UPF
     MD5 check sum: c66c5b6abe7b5840ced9b1e244e3bed6
     Pseudo is Norm-conserving, Zval = 14.0
     Generated in analytical, separable form
     Using radial grid of 1257 points,  6 beta functions with: 
                l(1) =   0
                l(2) =   0
                l(3) =   1
                l(4) =   1
                l(5) =   2
                l(6) =   3

     PseudoPot. # 2 for Gd read from file:
     /home/cwx6513/pp.La/Gd.UPF
     MD5 check sum: 09a8be538722f05520810cb6aac0efd2
     Pseudo is Norm-conserving, Zval = 18.0
     Generated in analytical, separable form
     Using radial grid of 1263 points,  6 beta functions with: 
                l(1) =   0
                l(2) =   0
                l(3) =   1
                l(4) =   1
                l(5) =   2
                l(6) =   3

     atomic species   valence    mass     pseudopotential
        Cu            14.00    63.54600     Nd( 1.00)
        Au            18.00   196.96600     Gd( 1.00)

     16 Sym. Ops., with inversion, found



   Cartesian axes

     site n.     atom                  positions (alat units)
         1           Cu  tau(   1) = (   0.5977499   0.5977499   0.8180286  )
         2           Au  tau(   2) = (   0.0000000   0.0000000   0.0000000  )

     number of k points=   100  gaussian smearing, width (Ry)=  0.1000

     Number of k-points >= 100: set verbosity='high' to print them.

     Dense  grid:    12603 G-vectors     FFT dimensions: (  27,  27,  36)

     Largest allocated arrays     est. size (Mb)     dimensions
        Kohn-Sham Wavefunctions         0.12 Mb     (    408,   20)
        NL pseudopotentials             0.25 Mb     (    408,   40)
        Each V/rho on FFT grid          0.10 Mb     (   6561)
        Each G-vector array             0.02 Mb     (   3150)
        G-vector shells                 0.01 Mb     (    815)
     Largest temporary arrays     est. size (Mb)     dimensions
        Each subspace H/S matrix        0.01 Mb     (  20,  20)
        Each <psi_i|beta_j> matrix      0.01 Mb     (     40,   20)
        Arrays for rho mixing           0.80 Mb     (   6561,   8)

     Initial potential from superposition of free atoms

     Starting from uniform charge
     Starting wfc are    0 randomized atomic wfcs

     Writing output data file Prototype-La-tP2-AuCu.save

     total cpu time spent up to now is       77.1 secs

     Self-consistent Calculation

     iteration #  1     ecut=    40.00 Ry     beta=0.70
     CG style diagonalization
     c_bands:  3 eigenvalues not converged
     c_bands:  5 eigenvalues not converged
     c_bands:  3 eigenvalues not converged
     c_bands:  3 eigenvalues not converged
     c_bands:  3 eigenvalues not converged
     c_bands:  2 eigenvalues not converged
     c_bands:  2 eigenvalues not converged
     c_bands:  5 eigenvalues not converged
     c_bands:  2 eigenvalues not converged
     c_bands:  4 eigenvalues not converged
     c_bands:  1 eigenvalues not converged
     c_bands:  3 eigenvalues not converged
     c_bands:  4 eigenvalues not converged
     c_bands:  5 eigenvalues not converged
     c_bands:  2 eigenvalues not converged
     c_bands:  3 eigenvalues not converged
     c_bands:  2 eigenvalues not converged
     c_bands:  3 eigenvalues not converged
     c_bands:  4 eigenvalues not converged
     c_bands:  3 eigenvalues not converged
     c_bands:  3 eigenvalues not converged
     c_bands:  1 eigenvalues not converged
     c_bands:  1 eigenvalues not converged
     c_bands:  1 eigenvalues not converged
     c_bands:  3 eigenvalues not converged
     c_bands:  5 eigenvalues not converged
     c_bands:  4 eigenvalues not converged
     c_bands:  2 eigenvalues not converged
     c_bands:  5 eigenvalues not converged
     c_bands:  2 eigenvalues not converged
     c_bands:  2 eigenvalues not converged
     c_bands:  5 eigenvalues not converged
     c_bands:  1 eigenvalues not converged
     c_bands:  1 eigenvalues not converged
     c_bands:  2 eigenvalues not converged
     c_bands:  3 eigenvalues not converged
     c_bands:  3 eigenvalues not converged
     c_bands:  5 eigenvalues not converged
     c_bands:  2 eigenvalues not converged
     c_bands:  1 eigenvalues not converged
     c_bands:  3 eigenvalues not converged
     c_bands:  5 eigenvalues not converged
     c_bands:  1 eigenvalues not converged
     c_bands:  3 eigenvalues not converged
     c_bands:  1 eigenvalues not converged
     c_bands:  2 eigenvalues not converged
     c_bands:  3 eigenvalues not converged
     c_bands:  5 eigenvalues not converged
     c_bands:  1 eigenvalues not converged
     c_bands:  1 eigenvalues not converged
     c_bands:  5 eigenvalues not converged
     c_bands:  3 eigenvalues not converged
     c_bands:  5 eigenvalues not converged
     c_bands:  3 eigenvalues not converged
     c_bands:  3 eigenvalues not converged
     c_bands:  3 eigenvalues not converged
     c_bands:  5 eigenvalues not converged
     c_bands:  4 eigenvalues not converged
     c_bands:  2 eigenvalues not converged
     c_bands:  4 eigenvalues not converged
     c_bands:  4 eigenvalues not converged
     ethr =  1.00E-06,  avg # of iterations = 34.4

     total cpu time spent up to now is       95.8 secs

     total energy              =    -232.67797445 Ry
     Harris-Foulkes estimate   =    -397.60295198 Ry
     estimated scf accuracy    <     206.28806589 Ry

     iteration #  2     ecut=    40.00 Ry     beta=0.70
     CG style diagonalization
     c_bands:  1 eigenvalues not converged
     c_bands:  1 eigenvalues not converged
     c_bands:  1 eigenvalues not converged
     c_bands:  1 eigenvalues not converged
     c_bands:  1 eigenvalues not converged
     c_bands:  1 eigenvalues not converged
     c_bands:  1 eigenvalues not converged
     c_bands:  1 eigenvalues not converged
     c_bands:  1 eigenvalues not converged
     c_bands:  1 eigenvalues not converged
     c_bands:  1 eigenvalues not converged
     c_bands:  1 eigenvalues not converged
     c_bands:  1 eigenvalues not converged
     c_bands:  2 eigenvalues not converged
     c_bands:  1 eigenvalues not converged
     c_bands:  1 eigenvalues not converged
     c_bands:  1 eigenvalues not converged
     c_bands:  1 eigenvalues not converged
     c_bands:  1 eigenvalues not converged
     c_bands:  1 eigenvalues not converged
     c_bands:  1 eigenvalues not converged
     c_bands:  1 eigenvalues not converged
     ethr =  1.00E-02,  avg # of iterations = 12.0

     total cpu time spent up to now is      102.7 secs

     total energy              =    -244.59610763 Ry
     Harris-Foulkes estimate   =    -377.70577113 Ry
     estimated scf accuracy    <     255.99333730 Ry

     iteration #  3     ecut=    40.00 Ry     beta=0.70
     CG style diagonalization
     c_bands:  1 eigenvalues not converged
     c_bands:  1 eigenvalues not converged
     ethr =  1.00E-02,  avg # of iterations = 10.9

     total cpu time spent up to now is      109.3 secs

     total energy              =    -310.00762221 Ry
     Harris-Foulkes estimate   =    -321.04454255 Ry
     estimated scf accuracy    <      24.08176164 Ry

     iteration #  4     ecut=    40.00 Ry     beta=0.70
     CG style diagonalization
     ethr =  1.00E-02,  avg # of iterations =  4.6

     total cpu time spent up to now is      112.1 secs

     total energy              =    -311.34707479 Ry
     Harris-Foulkes estimate   =    -312.40191223 Ry
     estimated scf accuracy    <       2.54014229 Ry

     iteration #  5     ecut=    40.00 Ry     beta=0.70
     CG style diagonalization
     ethr =  7.94E-03,  avg # of iterations =  3.3

     total cpu time spent up to now is      114.0 secs

     total energy              =    -311.68368789 Ry
     Harris-Foulkes estimate   =    -311.75850726 Ry
     estimated scf accuracy    <       0.11402259 Ry

     iteration #  6     ecut=    40.00 Ry     beta=0.70
     CG style diagonalization
     ethr =  3.56E-04,  avg # of iterations =  5.4

     total cpu time spent up to now is      118.0 secs

     total energy              =    -311.72513892 Ry
     Harris-Foulkes estimate   =    -311.79371344 Ry
     estimated scf accuracy    <       0.15833618 Ry

     iteration #  7     ecut=    40.00 Ry     beta=0.70
     CG style diagonalization
     ethr =  3.56E-04,  avg # of iterations =  3.4

     total cpu time spent up to now is      121.1 secs

     total energy              =    -311.75366785 Ry
     Harris-Foulkes estimate   =    -311.77329465 Ry
     estimated scf accuracy    <       0.04828644 Ry

     iteration #  8     ecut=    40.00 Ry     beta=0.70
     CG style diagonalization
     ethr =  1.51E-04,  avg # of iterations =  3.3

     total cpu time spent up to now is      123.2 secs

     total energy              =    -311.76307197 Ry
     Harris-Foulkes estimate   =    -311.76731590 Ry
     estimated scf accuracy    <       0.01200463 Ry

     iteration #  9     ecut=    40.00 Ry     beta=0.70
     CG style diagonalization
     ethr =  3.75E-05,  avg # of iterations =  3.2

     total cpu time spent up to now is      125.0 secs

     total energy              =    -311.76551413 Ry
     Harris-Foulkes estimate   =    -311.76583849 Ry
     estimated scf accuracy    <       0.00093569 Ry

     iteration # 10     ecut=    40.00 Ry     beta=0.70
     CG style diagonalization
     c_bands:  1 eigenvalues not converged
     c_bands:  1 eigenvalues not converged
     c_bands:  1 eigenvalues not converged
     c_bands:  1 eigenvalues not converged
     ethr =  2.92E-06,  avg # of iterations =  3.7

     total cpu time spent up to now is      127.2 secs

     total energy              =    -311.76572906 Ry
     Harris-Foulkes estimate   =    -311.76576137 Ry
     estimated scf accuracy    <       0.00006318 Ry

     iteration # 11     ecut=    40.00 Ry     beta=0.70
     CG style diagonalization
     c_bands:  1 eigenvalues not converged
     ethr =  1.97E-07,  avg # of iterations =  4.5

     total cpu time spent up to now is      129.7 secs

     total energy              =    -311.76575885 Ry
     Harris-Foulkes estimate   =    -311.76576530 Ry
     estimated scf accuracy    <       0.00001956 Ry

     iteration # 12     ecut=    40.00 Ry     beta=0.70
     CG style diagonalization
     ethr =  6.11E-08,  avg # of iterations =  3.5

     total cpu time spent up to now is      131.7 secs

     total energy              =    -311.76575898 Ry
     Harris-Foulkes estimate   =    -311.76576178 Ry
     estimated scf accuracy    <       0.00000960 Ry

     iteration # 13     ecut=    40.00 Ry     beta=0.70
     CG style diagonalization
     ethr =  3.00E-08,  avg # of iterations =  3.2

     total cpu time spent up to now is      133.5 secs

     End of self-consistent calculation

     Number of k-points >= 100: set verbosity='high' to print the bands.

     the Fermi energy is    15.7303 ev

!    total energy              =    -311.76576051 Ry
     Harris-Foulkes estimate   =    -311.76576059 Ry
     estimated scf accuracy    <       0.00000009 Ry

     The total energy is the sum of the following terms:

     one-electron contribution =     -66.35011591 Ry
     hartree contribution      =      48.60425019 Ry
     xc contribution           =     -32.45121877 Ry
     ewald contribution        =    -261.39312732 Ry
     smearing contrib. (-TS)   =      -0.17554871 Ry

     convergence has been achieved in  13 iterations

     Forces acting on atoms (Ry/au):

     atom    1 type  1   force =     0.00000000    0.00000000    0.00000000
     atom    2 type  2   force =     0.00000000    0.00000000    0.00000000

     Total force =     0.000000     Total SCF correction =     0.000000


     entering subroutine stress ...

          total   stress  (Ry/bohr**3)                   (kbar)     P= -396.24
  -0.00274264   0.00000000   0.00000000       -403.46      0.00      0.00
   0.00000000  -0.00274264   0.00000000          0.00   -403.46      0.00
   0.00000000   0.00000000  -0.00259554          0.00      0.00   -381.82


     Writing output data file Prototype-La-tP2-AuCu.save
 
     init_run     :      1.20s CPU      2.50s WALL (       2 calls)
     electrons    :    116.69s CPU    127.87s WALL (       5 calls)
     update_pot   :      0.39s CPU      0.40s WALL (       3 calls)
     forces       :      0.53s CPU      0.54s WALL (       5 calls)
     stress       :      1.34s CPU      1.37s WALL (       5 calls)

     Called by init_run:
     wfcinit      :      0.94s CPU      1.10s WALL (       2 calls)
     potinit      :      0.10s CPU      0.10s WALL (       2 calls)

     Called by electrons:
     c_bands      :    110.16s CPU    117.54s WALL (      51 calls)
     sum_band     :      6.42s CPU      6.75s WALL (      51 calls)
     v_of_rho     :      0.02s CPU      0.02s WALL (      56 calls)
     mix_rho      :      0.02s CPU      0.02s WALL (      51 calls)

     Called by c_bands:
     init_us_2    :      1.16s CPU      1.19s WALL (   11400 calls)
     ccgdiagg     :     94.11s CPU     99.41s WALL (    5282 calls)
     wfcrot       :     15.85s CPU     17.57s WALL (    5382 calls)

     Called by *cgdiagg:
     h_psi        :     79.82s CPU     86.28s WALL (  495572 calls)
     cdiaghg      :      0.68s CPU      0.92s WALL (    5382 calls)

     Called by h_psi:
     add_vuspsi   :      4.32s CPU      5.24s WALL (  495572 calls)

     General routines
     calbec       :     15.97s CPU     16.16s WALL (  986762 calls)
     fft          :      0.03s CPU      0.03s WALL (     247 calls)
     fftw         :     65.42s CPU     68.16s WALL ( 1297660 calls)
     davcio       :      0.68s CPU      1.13s WALL (   16500 calls)
 
     Parallel routines
     fft_scatter  :     19.44s CPU     22.48s WALL ( 1297907 calls)
 
     PWSCF        :  2m 0.97s CPU     2m14.32s WALL

 
   This run was terminated on:  17:35:15  22Mar2018            

=------------------------------------------------------------------------------=
   JOB DONE.
=------------------------------------------------------------------------------=
