
     Program PWSCF v.5.0.2 starts on 22Mar2018 at 17:34:59 

     This program is part of the open-source Quantum ESPRESSO suite
     for quantum simulation of materials; please cite
         "P. Giannozzi et al., J. Phys.:Condens. Matter 21 395502 (2009);
          URL http://www.quantum-espresso.org", 
     in publications or presentations arising from this work. More details at
     http://www.quantum-espresso.org/quote.php

     Parallel version (MPI), running on     4 processors
     R & G space division:  proc/nbgrp/npool/nimage =       4

     Current dimensions of program PWSCF are:
     Max number of different atomic species (ntypx) = 10
     Max number of k-points (npk) =  40000
     Max angular momentum in pseudopotentials (lmaxx) =  3
     Waiting for input...
     Reading input from standard input

     Subspace diagonalization in iterative solution of the eigenvalue problem:
     a serial algorithm will be used

 
     Parallelization info
     --------------------
     sticks:   dense  smooth     PW     G-vecs:    dense   smooth      PW
     Min         233     233     69                 5311     5311     851
     Max         234     234     70                 5314     5314     854
     Sum         933     933    277                21247    21247    3407
 


     bravais-lattice index     =            0
     lattice parameter (alat)  =       8.5346  a.u.
     unit-cell volume          =     621.6493 (a.u.)^3
     number of atoms/cell      =            8
     number of atomic types    =            2
     number of electrons       =       122.00
     number of Kohn-Sham states=           73
     kinetic-energy cutoff     =      40.0000  Ry
     charge density cutoff     =     160.0000  Ry
     convergence threshold     =      1.0E-04
     mixing beta               =       0.7000
     number of iterations used =            8  plain     mixing
     Exchange-correlation      = SLA-PZ-NOGX-NOGC ( 1 1 0 0 0)
     EXX-fraction              =        0.00
     nstep                     =           50


     celldm(1)=   8.534573  celldm(2)=   0.000000  celldm(3)=   0.000000
     celldm(4)=   0.000000  celldm(5)=   0.000000  celldm(6)=   0.000000

     crystal axes: (cart. coord. in units of alat)
               a(1) = (   1.000000   0.000000   0.000000 )  
               a(2) = (   0.000000   1.000000   0.000000 )  
               a(3) = (   0.000000   0.000000   1.000000 )  

     reciprocal axes: (cart. coord. in units 2 pi/alat)
               b(1) = (  1.000000  0.000000  0.000000 )  
               b(2) = (  0.000000  1.000000  0.000000 )  
               b(3) = (  0.000000  0.000000  1.000000 )  


     PseudoPot. # 1 for Nd read from file:
     /home/cwx6513/pp.La/Nd.UPF
     MD5 check sum: c66c5b6abe7b5840ced9b1e244e3bed6
     Pseudo is Norm-conserving, Zval = 14.0
     Generated in analytical, separable form
     Using radial grid of 1257 points,  6 beta functions with: 
                l(1) =   0
                l(2) =   0
                l(3) =   1
                l(4) =   1
                l(5) =   2
                l(6) =   3

     PseudoPot. # 2 for Tb read from file:
     /home/cwx6513/pp.La/Tb.UPF
     MD5 check sum: 3d6088a3f0cf7fd2e110c43f7f8e95c2
     Pseudo is Norm-conserving, Zval = 19.0
     Generated in analytical, separable form
     Using radial grid of 1263 points,  6 beta functions with: 
                l(1) =   0
                l(2) =   0
                l(3) =   1
                l(4) =   1
                l(5) =   2
                l(6) =   3

     atomic species   valence    mass     pseudopotential
        Cr            14.00    51.99610     Nd( 1.00)
        Si            19.00    28.08550     Tb( 1.00)

     48 Sym. Ops., with inversion, found (24 have fractional translation)



   Cartesian axes

     site n.     atom                  positions (alat units)
         1           Cr  tau(   1) = (   0.0000000   0.5000000   0.2500000  )
         2           Cr  tau(   2) = (   0.0000000   0.5000000   0.7500000  )
         3           Cr  tau(   3) = (   0.5000000   0.7500000   0.0000000  )
         4           Cr  tau(   4) = (   0.5000000   0.2500000   0.0000000  )
         5           Cr  tau(   5) = (   0.7500000   0.0000000   0.5000000  )
         6           Cr  tau(   6) = (   0.2500000   0.0000000   0.5000000  )
         7           Si  tau(   7) = (   0.5000000   0.5000000   0.5000000  )
         8           Si  tau(   8) = (   0.0000000   0.0000000   0.0000000  )

     number of k points=    48  gaussian smearing, width (Ry)=  0.1000
                       cart. coord. in units 2pi/alat
        k(    1) = (   0.0000000   0.0000000   0.0000000), wk =   0.0095238
        k(    2) = (   0.0000000   0.0000000   0.1428571), wk =   0.0190476
        k(    3) = (   0.0000000   0.0000000   0.2857143), wk =   0.0190476
        k(    4) = (   0.0000000   0.0000000   0.4285714), wk =   0.0190476
        k(    5) = (   0.0000000   0.1666667   0.0000000), wk =   0.0190476
        k(    6) = (   0.0000000   0.1666667   0.1428571), wk =   0.0380952
        k(    7) = (   0.0000000   0.1666667   0.2857143), wk =   0.0380952
        k(    8) = (   0.0000000   0.1666667   0.4285714), wk =   0.0380952
        k(    9) = (   0.0000000   0.3333333   0.0000000), wk =   0.0190476
        k(   10) = (   0.0000000   0.3333333   0.1428571), wk =   0.0380952
        k(   11) = (   0.0000000   0.3333333   0.2857143), wk =   0.0380952
        k(   12) = (   0.0000000   0.3333333   0.4285714), wk =   0.0380952
        k(   13) = (   0.0000000  -0.5000000   0.0000000), wk =   0.0095238
        k(   14) = (   0.0000000  -0.5000000   0.1428571), wk =   0.0190476
        k(   15) = (   0.0000000  -0.5000000   0.2857143), wk =   0.0190476
        k(   16) = (   0.0000000  -0.5000000   0.4285714), wk =   0.0190476
        k(   17) = (   0.2000000   0.0000000   0.0000000), wk =   0.0190476
        k(   18) = (   0.2000000   0.0000000   0.1428571), wk =   0.0380952
        k(   19) = (   0.2000000   0.0000000   0.2857143), wk =   0.0380952
        k(   20) = (   0.2000000   0.0000000   0.4285714), wk =   0.0380952
        k(   21) = (   0.2000000   0.1666667   0.0000000), wk =   0.0380952
        k(   22) = (   0.2000000   0.1666667   0.1428571), wk =   0.0761905
        k(   23) = (   0.2000000   0.1666667   0.2857143), wk =   0.0761905
        k(   24) = (   0.2000000   0.1666667   0.4285714), wk =   0.0761905
        k(   25) = (   0.2000000   0.3333333   0.0000000), wk =   0.0380952
        k(   26) = (   0.2000000   0.3333333   0.1428571), wk =   0.0761905
        k(   27) = (   0.2000000   0.3333333   0.2857143), wk =   0.0761905
        k(   28) = (   0.2000000   0.3333333   0.4285714), wk =   0.0761905
        k(   29) = (   0.2000000  -0.5000000   0.0000000), wk =   0.0190476
        k(   30) = (   0.2000000  -0.5000000   0.1428571), wk =   0.0380952
        k(   31) = (   0.2000000  -0.5000000   0.2857143), wk =   0.0380952
        k(   32) = (   0.2000000  -0.5000000   0.4285714), wk =   0.0380952
        k(   33) = (   0.4000000   0.0000000   0.0000000), wk =   0.0190476
        k(   34) = (   0.4000000   0.0000000   0.1428571), wk =   0.0380952
        k(   35) = (   0.4000000   0.0000000   0.2857143), wk =   0.0380952
        k(   36) = (   0.4000000   0.0000000   0.4285714), wk =   0.0380952
        k(   37) = (   0.4000000   0.1666667   0.0000000), wk =   0.0380952
        k(   38) = (   0.4000000   0.1666667   0.1428571), wk =   0.0761905
        k(   39) = (   0.4000000   0.1666667   0.2857143), wk =   0.0761905
        k(   40) = (   0.4000000   0.1666667   0.4285714), wk =   0.0761905
        k(   41) = (   0.4000000   0.3333333   0.0000000), wk =   0.0380952
        k(   42) = (   0.4000000   0.3333333   0.1428571), wk =   0.0761905
        k(   43) = (   0.4000000   0.3333333   0.2857143), wk =   0.0761905
        k(   44) = (   0.4000000   0.3333333   0.4285714), wk =   0.0761905
        k(   45) = (   0.4000000  -0.5000000   0.0000000), wk =   0.0190476
        k(   46) = (   0.4000000  -0.5000000   0.1428571), wk =   0.0380952
        k(   47) = (   0.4000000  -0.5000000   0.2857143), wk =   0.0380952
        k(   48) = (   0.4000000  -0.5000000   0.4285714), wk =   0.0380952

     Dense  grid:    21247 G-vectors     FFT dimensions: (  36,  36,  36)

     Largest allocated arrays     est. size (Mb)     dimensions
        Kohn-Sham Wavefunctions         0.76 Mb     (    683,   73)
        NL pseudopotentials             1.67 Mb     (    683,  160)
        Each V/rho on FFT grid          0.18 Mb     (  11664)
        Each G-vector array             0.04 Mb     (   5314)
        G-vector shells                 0.04 Mb     (   5314)
     Largest temporary arrays     est. size (Mb)     dimensions
        Each subspace H/S matrix        0.08 Mb     (  73,  73)
        Each <psi_i|beta_j> matrix      0.18 Mb     (    160,   73)
        Arrays for rho mixing           1.42 Mb     (  11664,   8)

     Initial potential from superposition of free atoms

     Starting from uniform charge
     Starting wfc are    0 randomized atomic wfcs

     total cpu time spent up to now is        3.4 secs

     Self-consistent Calculation

     iteration #  1     ecut=    40.00 Ry     beta=0.70
     CG style diagonalization
     c_bands:  1 eigenvalues not converged
     c_bands:  1 eigenvalues not converged
     ethr =  1.00E-02,  avg # of iterations = 11.1

     total cpu time spent up to now is       38.9 secs

     total energy              =    -772.52034207 Ry
     Harris-Foulkes estimate   =   -1262.23874674 Ry
     estimated scf accuracy    <     595.89625975 Ry

     iteration #  2     ecut=    40.00 Ry     beta=0.70
     CG style diagonalization
     c_bands:  1 eigenvalues not converged
     c_bands:  3 eigenvalues not converged
     c_bands:  4 eigenvalues not converged
     c_bands:  2 eigenvalues not converged
     c_bands:  1 eigenvalues not converged
     c_bands:  2 eigenvalues not converged
     c_bands:  2 eigenvalues not converged
     c_bands:  3 eigenvalues not converged
     c_bands:  2 eigenvalues not converged
     c_bands:  1 eigenvalues not converged
     c_bands:  1 eigenvalues not converged
     c_bands:  3 eigenvalues not converged
     c_bands:  1 eigenvalues not converged
     c_bands:  1 eigenvalues not converged
     c_bands:  3 eigenvalues not converged
     c_bands:  1 eigenvalues not converged
     c_bands:  1 eigenvalues not converged
     c_bands:  2 eigenvalues not converged
     c_bands:  3 eigenvalues not converged
     c_bands:  2 eigenvalues not converged
     c_bands:  1 eigenvalues not converged
     c_bands:  2 eigenvalues not converged
     c_bands:  2 eigenvalues not converged
     c_bands:  3 eigenvalues not converged
     c_bands:  3 eigenvalues not converged
     c_bands:  3 eigenvalues not converged
     c_bands:  1 eigenvalues not converged
     c_bands:  3 eigenvalues not converged
     c_bands:  1 eigenvalues not converged
     c_bands:  2 eigenvalues not converged
     c_bands:  1 eigenvalues not converged
     c_bands:  3 eigenvalues not converged
     c_bands:  2 eigenvalues not converged
     c_bands:  3 eigenvalues not converged
     c_bands:  2 eigenvalues not converged
     c_bands:  1 eigenvalues not converged
     c_bands:  1 eigenvalues not converged
     ethr =  1.00E-02,  avg # of iterations = 10.3

     total cpu time spent up to now is       70.7 secs

     total energy              =   -1052.37342143 Ry
     Harris-Foulkes estimate   =   -1403.59906791 Ry
     estimated scf accuracy    <     652.04768200 Ry

     iteration #  3     ecut=    40.00 Ry     beta=0.70
     CG style diagonalization
     c_bands:  1 eigenvalues not converged
     c_bands:  1 eigenvalues not converged
     ethr =  1.00E-02,  avg # of iterations = 10.2

     total cpu time spent up to now is      102.0 secs

     total energy              =   -1110.81653725 Ry
     Harris-Foulkes estimate   =   -1126.68201048 Ry
     estimated scf accuracy    <      34.10981175 Ry

     iteration #  4     ecut=    40.00 Ry     beta=0.70
     CG style diagonalization
     ethr =  1.00E-02,  avg # of iterations =  3.7

     total cpu time spent up to now is      113.1 secs

     total energy              =   -1114.37529751 Ry
     Harris-Foulkes estimate   =   -1115.39394144 Ry
     estimated scf accuracy    <       1.80522183 Ry

     iteration #  5     ecut=    40.00 Ry     beta=0.70
     CG style diagonalization
     ethr =  1.48E-03,  avg # of iterations =  4.6

     total cpu time spent up to now is      127.7 secs

     total energy              =   -1115.12822427 Ry
     Harris-Foulkes estimate   =   -1115.19611318 Ry
     estimated scf accuracy    <       0.13005487 Ry

     iteration #  6     ecut=    40.00 Ry     beta=0.70
     CG style diagonalization
     c_bands:  1 eigenvalues not converged
     c_bands:  1 eigenvalues not converged
     c_bands:  1 eigenvalues not converged
     c_bands:  1 eigenvalues not converged
     c_bands:  2 eigenvalues not converged
     c_bands:  1 eigenvalues not converged
     c_bands:  1 eigenvalues not converged
     c_bands:  1 eigenvalues not converged
     c_bands:  1 eigenvalues not converged
     ethr =  1.07E-04,  avg # of iterations =  4.6

     total cpu time spent up to now is      143.4 secs

     total energy              =   -1115.18083097 Ry
     Harris-Foulkes estimate   =   -1115.18201250 Ry
     estimated scf accuracy    <       0.00188117 Ry

     iteration #  7     ecut=    40.00 Ry     beta=0.70
     CG style diagonalization
     c_bands:  1 eigenvalues not converged
     c_bands:  1 eigenvalues not converged
     c_bands:  2 eigenvalues not converged
     c_bands:  1 eigenvalues not converged
     c_bands:  2 eigenvalues not converged
     c_bands:  2 eigenvalues not converged
     c_bands:  1 eigenvalues not converged
     c_bands:  1 eigenvalues not converged
     c_bands:  2 eigenvalues not converged
     c_bands:  1 eigenvalues not converged
     c_bands:  2 eigenvalues not converged
     c_bands:  2 eigenvalues not converged
     c_bands:  1 eigenvalues not converged
     c_bands:  1 eigenvalues not converged
     c_bands:  1 eigenvalues not converged
     c_bands:  2 eigenvalues not converged
     c_bands:  1 eigenvalues not converged
     c_bands:  1 eigenvalues not converged
     c_bands:  1 eigenvalues not converged
     c_bands:  1 eigenvalues not converged
     c_bands:  1 eigenvalues not converged
     c_bands:  2 eigenvalues not converged
     ethr =  1.54E-06,  avg # of iterations =  6.0

     total cpu time spent up to now is      162.3 secs

     total energy              =   -1115.18298237 Ry
     Harris-Foulkes estimate   =   -1115.18424487 Ry
     estimated scf accuracy    <       0.00219521 Ry

     iteration #  8     ecut=    40.00 Ry     beta=0.70
     CG style diagonalization
     c_bands:  1 eigenvalues not converged
     ethr =  1.54E-06,  avg # of iterations =  3.6

     total cpu time spent up to now is      173.6 secs

     End of self-consistent calculation

          k = 0.0000 0.0000 0.0000 (  2601 PWs)   bands (ev):

   -34.9004 -34.8927  -7.7057  -6.4115  -6.4115  -4.6437  -4.6437  -4.6437
    -3.7637  -3.7637  -3.7637  -3.1161  -3.1161  -3.1161   9.6571   9.6571
    10.8640  13.2544  13.2544  13.2544  15.5573  15.5573  15.5573  16.8902
    16.8902  16.8902  17.2266  17.2266  17.2266  21.5388  21.5388  21.5388
    31.7633  31.7633  33.4972  33.4972  33.4972  33.5081  33.6657  33.6657
    33.9280  33.9280  33.9280  33.9866  33.9866  33.9866  35.0312  35.1920
    37.5377  37.5377  37.5377  38.0973  38.0973  39.1159  41.8120  41.8120
    41.8120  42.1923  42.1923  44.1086  44.1086  44.1086  44.6141  44.6141
    44.6141  48.4113  48.4114  48.4467  48.8292  48.8292  48.8296  49.6881
    49.6883

          k = 0.0000 0.0000 0.1429 (  2657 PWs)   bands (ev):

   -34.9155 -34.9017  -7.6714  -6.5520  -6.3350  -4.6290  -4.6103  -4.6103
    -3.8184  -3.8184  -3.7537  -3.2117  -3.1568  -3.1568   9.7024   9.8674
    11.0173  13.1966  13.1966  13.4450  15.6093  15.6093  15.6214  16.5745
    17.0209  17.0209  17.1215  17.1777  17.1777  20.6723  21.5215  21.5215
    31.6366  32.0757  32.2846  33.2716  33.2716  33.4795  33.6139  33.6139
    33.7669  33.9167  33.9442  34.0988  34.0988  34.2619  35.7212  36.4688
    36.7774  37.9571  38.0013  38.0013  38.3925  39.7732  41.3074  41.3074
    41.7117  41.7455  41.9473  44.2177  44.2177  44.7388  45.2341  45.2341
    45.4710  47.2480  47.3445  47.7336  47.7336  48.6461  49.3140  49.3141
    50.0812

          k = 0.0000 0.0000 0.2857 (  2677 PWs)   bands (ev):

   -34.9169 -34.9083  -7.5720  -6.8576  -6.0946  -4.7755  -4.5253  -4.5253
    -3.8398  -3.8398  -3.6275  -3.3683  -3.2535  -3.2535   9.8195  10.0175
    11.9983  13.0837  13.0837  13.8977  15.7378  15.7378  15.8121  15.8249
    16.8581  17.0758  17.0758  17.3226  17.3226  18.6367  21.4822  21.4822
    30.9934  32.1887  32.1887  32.3076  32.3255  33.0638  33.6155  33.6372
    33.6372  33.8405  34.2082  34.6042  34.6042  34.7593  35.8609  36.9197
    37.6446  38.6354  38.6647  38.6647  39.0944  40.6720  40.6720  41.2444
    41.3887  41.5768  42.2751  44.1614  44.1614  44.3065  45.0805  45.0805
    45.8383  46.1415  46.9830  48.1451  48.1452  49.2126  49.2127  49.6687
    51.0598

          k = 0.0000 0.0000 0.4286 (  2658 PWs)   bands (ev):

   -34.9089 -34.9079  -7.4067  -7.1638  -5.6914  -5.1937  -4.4402  -4.4402
    -3.8510  -3.8510  -3.4826  -3.4009  -3.3337  -3.3337   9.9310   9.9933
    13.0021  13.0021  13.7258  14.5602  14.9481  15.8419  15.8419  16.1354
    16.2915  16.5029  16.9850  16.9850  17.5816  17.5816  21.4540  21.4540
    30.9859  31.4433  31.4433  31.6497  32.7125  32.9843  33.6132  33.6424
    33.6424  33.7103  34.0687  34.2046  35.2094  35.2094  36.7795  37.3063
    38.4710  38.6587  38.6587  39.5365  40.0853  40.4823  40.5920  40.5920
    41.4308  42.1635  43.2636  43.6239  43.6239  45.1604  45.1809  45.2465
    45.2465  45.3808  46.3286  47.8347  47.8348  49.4654  50.4107  50.4125
    50.5857

          k = 0.0000 0.1667 0.0000 (  2653 PWs)   bands (ev):

   -34.9140 -34.9018  -7.6591  -6.5966  -6.3068  -4.6336  -4.5984  -4.5984
    -3.8179  -3.8179  -3.7301  -3.2381  -3.1699  -3.1699   9.7190   9.9149
    11.1065  13.1799  13.1799  13.5094  15.6285  15.6285  15.6466  16.4685
    17.0641  17.0641  17.0876  17.1641  17.1641  20.3900  21.5168  21.5168
    31.5347  32.1509  32.2179  33.1037  33.1038  33.4164  33.6126  33.6126
    33.7323  33.9307  34.0683  34.1601  34.1601  34.2691  35.8869  36.5636
    36.8804  37.9122  38.1281  38.1281  38.4299  40.0705  41.1885  41.1885
    41.6690  41.6741  41.8799  44.2295  44.2295  44.7450  45.3035  45.3035
    45.8025  47.0452  47.0729  47.7473  47.7473  48.7678  49.0898  49.0898
    50.3180

          k = 0.0000 0.1667 0.1429 (  2662 PWs)   bands (ev):

   -34.9170 -34.9026  -7.6228  -6.6059  -6.3562  -4.6692  -4.5600  -4.5527
    -3.8295  -3.7984  -3.6988  -3.3641  -3.2110  -3.1622   9.8298  10.1681
    11.1585  13.1539  13.3720  13.4695  15.4155  15.5473  15.9667  16.6512
    16.8095  16.8452  17.1059  17.1564  17.3160  20.3693  20.6618  21.5000
    31.6545  32.2401  32.3257  32.3898  32.9414  33.0009  33.1996  33.4164
    33.6616  33.6684  33.8028  34.3400  34.5317  35.7077  36.3065  36.8541
    37.3494  37.5760  37.9769  38.5471  38.9771  40.2501  40.8192  41.0773
    41.3757  41.5006  42.1454  44.3453  44.4537  45.0318  45.2034  45.5317
    45.7601  46.1635  46.6716  47.7858  48.5778  48.5958  49.1095  49.1947
    50.0446

          k = 0.0000 0.1667 0.2857 (  2666 PWs)   bands (ev):

   -34.9140 -34.9072  -7.5215  -6.8261  -6.1882  -4.8547  -4.5043  -4.4703
    -3.8366  -3.7788  -3.6032  -3.5153  -3.3192  -3.1691   9.9185  10.5178
    11.9455  13.0957  13.3707  13.8347  15.3448  15.3826  16.1292  16.2491
    16.6778  16.9760  17.0292  17.3459  17.4130  18.6531  20.3546  21.4637
    31.1827  31.8843  32.1173  32.2769  32.5280  32.6808  32.9519  33.1241
    33.4420  33.6662  33.7672  35.0575  35.2133  36.1965  36.3966  37.3921
    37.7500  38.1109  39.0609  39.2532  39.5674  40.4204  40.6884  41.0782
    41.0933  42.1617  42.4193  43.8877  43.8903  44.1654  44.5415  45.1292
    45.5164  46.9955  47.0985  48.1325  48.7187  48.8346  49.1895  50.0949
    50.3051

          k = 0.0000 0.1667 0.4286 (  2658 PWs)   bands (ev):

   -34.9104 -34.9067  -7.3646  -7.1050  -5.7969  -5.2908  -4.4478  -4.3764
    -3.8542  -3.8061  -3.6461  -3.4105  -3.4091  -3.1618   9.9721  10.5729
    13.0506  13.1446  13.8068  14.3923  14.8926  15.4937  15.8691  15.9499
    16.3296  16.7730  16.8810  17.3187  17.3940  17.6250  20.3276  21.4376
    30.9128  31.3660  31.3836  31.9196  32.7212  32.9216  32.9743  33.0632
    33.2951  33.7583  33.8858  34.6127  35.8377  36.3843  36.8293  37.5715
    38.5024  39.0245  39.0621  39.6073  40.3246  40.4483  40.7565  40.9320
    41.5528  42.1108  42.9258  43.0585  43.4075  44.2140  44.6073  45.3550
    45.4924  46.7968  47.1259  47.5256  48.4894  48.5979  49.8399  50.4129
    50.4962

          k = 0.0000 0.3333 0.0000 (  2677 PWs)   bands (ev):

   -34.9164 -34.9085  -7.5251  -6.9638  -5.9767  -4.8902  -4.4949  -4.4949
    -3.8477  -3.8477  -3.5802  -3.3788  -3.2885  -3.2885   9.8609  10.0162
    12.5247  13.0491  13.0491  14.0834  15.5212  15.7800  15.7800  15.9186
    16.7469  17.0398  17.0398  17.4260  17.4260  17.8616  21.4679  21.4679
    30.9017  31.8739  31.8739  32.1703  32.4426  33.0045  33.6001  33.6408
    33.6408  33.7978  34.1602  34.6225  34.8222  34.8222  36.1131  37.4063
    37.5338  38.7532  38.7532  38.8253  39.9032  40.5641  40.5641  40.9419
    41.3583  41.5813  43.3338  43.8942  44.0083  44.0083  45.0697  45.0697
    45.4995  45.8384  46.9549  47.9741  47.9742  49.9710  49.9713  50.0804
    50.8654

          k = 0.0000 0.3333 0.1429 (  2660 PWs)   bands (ev):

   -34.9116 -34.9068  -7.4872  -6.9320  -6.0559  -4.9587  -4.4771  -4.4495
    -3.8383  -3.7869  -3.6058  -3.4817  -3.3369  -3.1846   9.9337  10.3963
    12.4500  13.0703  13.2938  14.0283  15.2671  15.4594  16.0607  16.1203
    16.6509  16.9607  17.1691  17.3009  17.4748  17.9192  20.6214  21.4585
    31.0375  31.6592  31.8271  32.2291  32.5547  32.8319  33.0964  33.2341
    33.4250  33.7091  33.7657  34.8976  35.3074  36.1163  36.2599  37.6888
    37.7302  38.5313  39.0019  39.2818  40.1291  40.3732  40.6191  40.9546
    41.1360  42.1340  43.1791  43.6017  43.7158  44.1777  44.2504  45.1346
    45.1453  46.8537  47.2031  47.9471  48.7904  49.1244  49.4025  50.2763
    50.6423

          k = 0.0000 0.3333 0.2857 (  2658 PWs)   bands (ev):

   -34.9121 -34.9056  -7.4023  -6.8878  -6.1146  -5.1109  -4.6402  -4.3343
    -3.8457  -3.7485  -3.6760  -3.4709  -3.3962  -3.0921   9.9813  11.5505
    12.4661  13.1185  13.7247  13.8938  15.0546  15.2390  15.7845  16.2161
    16.7785  16.8073  17.0572  17.4988  17.6287  17.8955  18.6902  21.4266
    31.0575  31.5065  31.6057  31.7095  32.1977  32.5396  32.8695  32.9811
    33.1827  33.7107  34.0355  35.6684  36.1735  36.6390  37.2369  37.3413
    38.3902  38.5639  39.0047  40.1297  40.3690  40.5417  40.8129  41.2569
    41.3247  42.0530  42.4822  42.6932  43.9444  44.2599  44.6832  45.3334
    45.7845  47.1474  47.6290  47.9683  48.4924  48.6760  49.1050  49.4405
    49.7576

          k = 0.0000 0.3333 0.4286 (  2654 PWs)   bands (ev):

   -34.9085 -34.9066  -7.3231  -6.9241  -5.8878  -5.4398  -4.8323  -4.2070
    -3.8607  -3.8002  -3.6188  -3.6116  -3.2742  -3.0226  10.0266  12.1948
    13.1583  13.3624  13.9982  14.0452  14.9937  15.2157  15.4475  15.8218
    16.2375  16.7102  17.0094  17.3689  17.5911  17.7609  17.9520  21.3984
    30.7334  31.0889  31.1054  31.8176  31.9422  32.2868  33.0397  33.1350
    33.2996  33.8321  34.5984  35.8011  36.4436  36.8675  36.9431  37.6966
    38.3586  39.1424  39.3600  39.8170  40.3774  40.6297  40.8927  41.6870
    41.7736  41.8870  42.0599  43.8141  44.1130  44.4921  45.2130  45.7309
    45.9428  47.1243  47.6529  47.6545  48.1078  48.5498  49.1107  49.1970
    49.6012

          k = 0.0000-0.5000 0.0000 (  2666 PWs)   bands (ev):

   -34.9098 -34.9098  -7.2956  -7.2956  -5.4466  -5.4466  -4.4269  -4.4269
    -3.8603  -3.8603  -3.4361  -3.4361  -3.3465  -3.3465   9.9662   9.9662
    12.9911  12.9911  14.4682  14.4682  15.2358  15.2358  15.8571  15.8571
    16.3155  16.3155  16.9696  16.9696  17.6194  17.6194  21.4495  21.4495
    31.2574  31.2574  31.3406  31.3406  32.8899  32.8899  33.6418  33.6418
    33.6537  33.6537  34.0642  34.0642  35.3241  35.3241  37.0967  37.0967
    38.5784  38.5784  39.2971  39.2971  40.1589  40.1589  40.6407  40.6407
    41.7451  41.7451  43.4976  43.4976  44.2922  44.2922  45.1821  45.1821
    45.3192  45.3192  47.7642  47.7643  47.8316  47.8317  50.3148  50.3644
    50.3815

          k = 0.0000-0.5000 0.1429 (  2666 PWs)   bands (ev):

   -34.9099 -34.9099  -7.2983  -7.2158  -5.5564  -5.4968  -4.4189  -4.3787
    -3.8594  -3.8330  -3.6342  -3.4056  -3.4045  -3.1855   9.9762  10.4187
    13.0303  13.1346  14.4183  14.4842  15.0444  15.2105  15.5854  15.9795
    16.0263  16.7043  16.8908  17.2476  17.4643  17.6479  20.5995  21.4360
    30.8991  31.2983  31.3616  31.7374  32.8287  32.9607  33.0841  33.1828
    33.3277  33.7692  33.9308  34.3442  35.8070  36.1294  37.0194  37.4940
    38.4969  39.0034  39.4729  39.7058  39.7651  40.6778  40.7255  40.9051
    41.4879  42.4300  42.6568  42.9763  43.4605  44.3651  44.4898  45.1889
    46.1888  46.8339  47.0822  47.3877  47.8829  48.3408  50.2590  50.3162
    50.4015

          k = 0.0000-0.5000 0.2857 (  2658 PWs)   bands (ev):

   -34.9084 -34.9083  -7.3058  -7.0127  -5.7102  -5.5891  -4.6977  -4.2449
    -3.8667  -3.8055  -3.6415  -3.5689  -3.2971  -3.0475  10.0145  11.6702
    13.1282  13.4330  14.1673  14.5090  14.9987  15.1914  15.3049  15.5026
    16.1208  16.7388  17.0853  17.2545  17.5443  17.7395  18.6499  21.4050
    30.6996  31.1165  31.2849  31.9227  32.1355  32.1614  33.0732  33.1297
    33.1840  33.8222  34.4909  35.2081  36.7629  36.7878  36.9443  37.6744
    38.2514  39.6313  39.7707  39.8341  40.1496  40.5248  40.7419  40.9671
    41.6746  41.7721  42.4085  44.1154  44.1387  44.3157  44.3444  45.5753
    46.5781  46.6721  47.4433  47.7004  48.0923  48.5912  48.7866  49.8818
    49.9200

          k = 0.0000-0.5000 0.4286 (  2662 PWs)   bands (ev):

   -34.9090 -34.9090  -7.3147  -6.8230  -5.6951  -5.6477  -5.1521  -4.0447
    -3.8642  -3.8263  -3.7852  -3.5642  -3.2024  -2.9690  10.0666  13.2225
    13.3420  13.6251  14.0411  14.5210  15.0252  15.1662  15.1914  15.2602
    15.7205  16.6505  16.7043  16.8462  17.6261  17.6643  17.8473  21.3772
    30.5654  30.6491  30.7512  31.7244  32.1618  32.1891  32.9546  33.4334
    33.4372  33.9410  35.7296  35.8693  36.2372  36.5154  37.2662  37.7253
    38.0251  38.8730  38.9911  39.5863  39.7335  41.0843  41.4689  41.8302
    42.0918  42.2875  43.7626  43.9087  44.3142  45.0349  45.4058  45.6121
    46.1990  47.3227  47.4002  47.8890  48.2043  48.2354  48.4020  48.5963
    48.8937

          k = 0.2000 0.0000 0.0000 (  2661 PWs)   bands (ev):

   -34.9174 -34.9017  -7.6391  -6.6647  -6.2594  -4.6510  -4.5793  -4.5793
    -3.8275  -3.8275  -3.7118  -3.2741  -3.1905  -3.1905   9.7450   9.9666
    11.2818  13.1533  13.1533  13.6069  15.6576  15.6576  15.6881  16.3014
    17.0327  17.1263  17.1263  17.1472  17.1472  19.9454  21.5067  21.5067
    31.3618  32.1991  32.2419  32.8467  32.8467  33.3158  33.6197  33.6197
    33.6892  33.9087  34.2628  34.2628  34.2648  34.3082  36.1446  36.2636
    37.4839  37.8441  38.3024  38.3024  38.4730  40.5694  41.0263  41.0263
    41.5897  41.5936  41.7828  44.2380  44.2380  44.7059  45.2970  45.2971
    46.2422  46.6947  46.7725  47.9352  47.9352  48.8099  48.8099  48.9818
    50.6447

          k = 0.2000 0.0000 0.1429 (  2667 PWs)   bands (ev):

   -34.9156 -34.9060  -7.6021  -6.6597  -6.3218  -4.6974  -4.5419  -4.5410
    -3.8318  -3.7939  -3.6663  -3.4157  -3.2356  -3.1712   9.8531  10.2568
    11.2963  13.1372  13.3538  13.5634  15.4054  15.5198  16.0295  16.5207
    16.7832  16.8888  17.0794  17.2090  17.3269  19.9328  20.6511  21.4918
    31.5076  32.2491  32.3711  32.3936  32.7492  32.7705  33.1575  33.3612
    33.6147  33.6573  33.7818  34.5368  34.6787  35.8473  36.5405  36.6394
    37.6652  37.8628  37.9293  38.7047  39.0912  40.5906  40.7584  40.9611
    41.3147  41.3938  42.2133  44.2896  44.3272  44.9420  45.0472  45.3651
    46.0123  46.0944  46.7724  48.0456  48.4528  48.4607  49.3330  49.4783
    49.8059

          k = 0.2000 0.0000 0.2857 (  2659 PWs)   bands (ev):

   -34.9120 -34.9064  -7.5012  -6.8219  -6.2058  -4.8854  -4.5173  -4.4481
    -3.8325  -3.7605  -3.6117  -3.5157  -3.3471  -3.1526   9.9320  10.7479
    11.9498  13.1003  13.4724  13.8102  15.2787  15.3312  16.0958  16.3147
    16.7285  16.9317  16.9473  17.3827  17.4590  18.6500  19.9264  21.4576
    31.2098  31.8110  32.0816  32.1786  32.5780  32.6862  32.7243  32.9378
    33.3838  33.6524  33.8088  35.1994  35.4060  36.3543  36.7700  37.5904
    37.6907  37.9443  39.1391  39.3987  39.9061  40.4157  40.6824  40.9724
    41.0754  42.1742  42.5427  43.5871  43.9270  44.0416  44.4393  45.2905
    45.6325  46.8817  47.3085  48.2320  48.5256  48.8074  49.2783  50.1081
    50.3510

          k = 0.2000 0.0000 0.4286 (  2660 PWs)   bands (ev):

   -34.9106 -34.9071  -7.3529  -7.0765  -5.8286  -5.3217  -4.4884  -4.3498
    -3.8550  -3.8010  -3.6693  -3.4415  -3.3889  -3.1295   9.9800  10.8290
    13.0693  13.1928  13.8409  14.3212  14.8944  15.4216  15.8424  15.8669
    16.3349  16.8439  16.8986  17.3226  17.3946  17.6452  19.8971  21.4306
    30.8779  31.3528  31.3851  31.9303  32.5999  32.6854  32.9521  33.0297
    33.2294  33.7622  33.9559  34.8122  36.0536  36.6882  36.8696  37.5248
    38.4981  39.1560  39.1769  39.7296  40.3692  40.3919  40.8112  41.0952
    41.2858  42.1734  42.6031  43.3009  43.5262  44.1373  44.5856  45.2651
    45.6380  46.8914  47.4770  47.5646  48.4364  48.5313  49.3457  50.4647
    50.5105

          k = 0.2000 0.1667 0.0000 (  2672 PWs)   bands (ev):

   -34.9153 -34.9087  -7.5896  -6.6686  -6.3269  -4.7128  -4.5372  -4.5329
    -3.8302  -3.7852  -3.6517  -3.4552  -3.2559  -3.1673   9.8683  10.3626
    11.3238  13.1319  13.4163  13.5513  15.3788  15.4842  16.0758  16.5674
    16.7440  16.8234  17.0564  17.2351  17.3526  19.9244  20.3769  21.4855
    31.5094  32.2283  32.2804  32.4297  32.7072  32.7404  33.0105  33.2391
    33.5767  33.6353  33.7811  34.6308  34.7930  36.0976  36.6758  36.7098
    37.5797  37.9051  37.9809  38.8095  39.3074  40.5582  40.8034  40.9297
    41.2535  41.3119  42.3353  44.2366  44.2829  44.7328  45.0745  45.4431
    45.9956  46.0678  46.7615  48.1799  48.4437  48.5331  49.3730  49.4282
    49.9541

          k = 0.2000 0.1667 0.1429 (  2665 PWs)   bands (ev):

   -34.9149 -34.9060  -7.5475  -6.6025  -6.4450  -4.7182  -4.6407  -4.4329
    -3.7743  -3.7669  -3.6298  -3.5763  -3.2282  -3.1984  10.2469  10.4215
    11.2965  13.3418  13.4186  13.5370  14.9648  15.9030  16.0160  16.4344
    16.7352  16.8949  17.0116  17.2472  17.3256  19.9187  20.3609  20.6380
    31.7430  32.1038  32.2997  32.3464  32.4991  32.6622  32.8501  32.9247
    33.2221  33.4433  33.6418  34.8754  35.7575  36.1442  37.0694  37.1536
    37.7423  38.3553  38.3678  38.6899  39.1866  40.4859  40.6159  40.7927
    41.2114  42.0643  42.3858  44.0192  44.1391  44.4958  44.6770  45.5335
    45.7388  46.9077  47.1214  47.7800  47.9507  48.0358  48.5816  49.8977
    50.0563

          k = 0.2000 0.1667 0.2857 (  2655 PWs)   bands (ev):

   -34.9130 -34.9031  -7.4345  -6.7457  -6.3408  -4.9349  -4.6672  -4.3579
    -3.7736  -3.7469  -3.6865  -3.5209  -3.2698  -3.1856  10.4992  10.8073
    11.8680  13.4035  13.5102  13.8084  14.6589  15.8731  15.9873  16.1830
    16.6250  16.9589  17.1275  17.2672  17.4147  18.6641  19.9107  20.3360
    31.4966  31.6263  31.9907  32.1274  32.4049  32.6941  32.7602  32.7773
    32.9124  33.3725  33.7003  35.4212  36.2427  36.7706  36.9238  38.0696
    38.1510  38.6377  38.9071  39.7076  39.7465  40.1569  40.5701  41.1104
    42.0699  42.1832  42.7633  43.1452  43.5696  43.9753  44.4318  44.7650
    46.1577  46.6219  47.2561  47.4200  47.9361  48.2579  48.4245  49.7225
    50.3978

          k = 0.2000 0.1667 0.4286 (  2655 PWs)   bands (ev):

   -34.9086 -34.9064  -7.2656  -7.0291  -5.9359  -5.4188  -4.5614  -4.4070
    -3.8407  -3.7825  -3.6028  -3.5059  -3.2407  -3.1691  10.5833  10.8443
    13.1435  13.3556  13.8947  14.3018  14.4851  15.5746  15.6464  16.1252
    16.2922  16.4961  17.2335  17.3011  17.4160  17.4887  19.8848  20.3078
    31.0225  31.1301  31.7785  32.0236  32.3083  32.4242  32.7527  32.8227
    33.2535  33.5132  34.0719  34.8754  36.6948  36.9237  37.2066  38.0764
    38.9624  39.2048  39.4611  39.9206  39.9496  40.5252  41.2067  41.6119
    41.7849  41.9380  42.5699  43.0481  43.4825  43.7605  44.0812  45.2005
    45.5303  46.9233  47.1351  47.5537  47.6476  48.3103  48.5689  49.2772
    50.4656

          k = 0.2000 0.3333 0.0000 (  2656 PWs)   bands (ev):

   -34.9120 -34.9050  -7.4559  -6.9090  -6.1006  -5.0093  -4.5090  -4.4094
    -3.8420  -3.7597  -3.6480  -3.4675  -3.3825  -3.1415   9.9523  10.7947
    12.4263  13.0879  13.4648  13.9774  15.1647  15.3490  16.0162  16.1670
    16.7889  16.9004  16.9991  17.4028  17.5246  17.9291  19.9149  21.4462
    31.0910  31.5686  31.7762  32.1362  32.6018  32.7045  32.8143  32.9112
    33.3184  33.6901  33.8330  35.2167  35.6467  36.3317  36.8243  37.6304
    38.0189  38.3354  39.0863  39.7357  40.2247  40.4821  40.6283  40.9177
    41.0365  42.3247  43.0302  43.1991  43.8743  44.0477  44.1171  45.2273
    45.2818  47.2292  47.4629  47.9717  48.7587  48.8634  48.9996  50.0684
    50.6384

          k = 0.2000 0.3333 0.1429 (  2657 PWs)   bands (ev):

   -34.9122 -34.9045  -7.4024  -6.8602  -6.1966  -5.0646  -4.6088  -4.3582
    -3.7997  -3.7717  -3.6652  -3.5017  -3.2920  -3.1706  10.3882  10.8199
    12.3517  13.3282  13.5079  13.9732  14.6784  15.7627  15.8689  16.2189
    16.5462  16.9916  17.2039  17.2623  17.4408  17.9723  19.9038  20.5996
    31.3034  31.4022  31.8508  32.1276  32.5033  32.6399  32.7230  32.8040
    33.0559  33.3788  33.8991  35.2852  36.3169  36.6170  36.9025  38.2230
    38.3680  38.5998  39.0976  39.7435  39.8900  40.4545  40.6766  41.1614
    41.6973  42.6639  42.8505  42.9382  43.5518  43.9010  44.2568  44.4171
    46.0864  46.9600  47.1335  47.3665  48.2328  48.5197  48.5839  49.5626
    50.3530

          k = 0.2000 0.3333 0.2857 (  2656 PWs)   bands (ev):

   -34.9108 -34.9045  -7.2754  -6.7651  -6.3110  -5.1899  -4.8531  -4.4470
    -3.8346  -3.6662  -3.6139  -3.3987  -3.2984  -3.1503  10.8341  11.6135
    12.3262  13.5862  13.7420  13.9547  14.3118  15.6175  15.8884  16.1641
    16.6351  16.7507  17.1176  17.3452  17.5008  17.9635  18.6682  19.8787
    31.2608  31.4589  31.6285  31.9249  32.2145  32.4534  32.6532  32.7526
    33.0083  33.2966  33.8712  35.9293  36.6336  37.1489  37.4775  38.1394
    38.7556  39.2255  39.4695  40.0356  40.1106  40.8321  40.9981  41.6743
    42.1340  42.3479  42.6918  42.7796  43.2786  43.8215  44.3288  44.9192
    46.0390  46.3725  46.4023  47.2239  47.3009  47.9002  48.1617  49.2458
    50.1583

          k = 0.2000 0.3333 0.4286 (  2643 PWs)   bands (ev):

   -34.9048 -34.9045  -7.1411  -6.8390  -6.0586  -5.5669  -4.9871  -4.5782
    -3.7512  -3.6568  -3.5382  -3.3975  -3.2536  -3.0839  10.8866  12.2126
    13.2385  13.6449  13.8812  13.9966  14.5750  15.4328  15.6691  15.9315
    16.2588  16.5085  16.9659  17.3244  17.3931  17.5598  17.9558  19.8541
    30.9838  31.1444  31.6364  31.9245  32.0497  32.2574  32.5124  32.8278
    32.9427  33.6760  34.5356  35.7201  36.8218  37.0912  37.5884  38.2064
    38.9578  39.6351  39.8340  40.3404  40.4904  41.1865  41.4775  41.6104
    41.7751  42.1585  42.3334  42.9207  43.7090  44.1487  44.8957  45.4458
    45.7727  46.1819  46.5935  47.0512  47.1474  47.6720  48.4586  49.0264
    49.6269

          k = 0.2000-0.5000 0.0000 (  2658 PWs)   bands (ev):

   -34.9082 -34.9081  -7.3011  -7.1448  -5.6275  -5.5339  -4.4813  -4.3329
    -3.8572  -3.8104  -3.6648  -3.4568  -3.3727  -3.1286   9.9879  10.8360
    13.0647  13.2497  14.3402  14.4948  14.9888  15.1963  15.4595  15.7813
    16.0932  16.8291  16.9298  17.3310  17.3884  17.6786  19.8942  21.4263
    30.8045  31.2506  31.4122  31.8257  32.5885  32.6823  33.0204  33.0373
    33.2084  33.7831  34.0528  34.6263  36.1770  36.7547  36.9491  37.4925
    38.4121  39.3483  39.5952  39.8776  40.0747  40.5027  40.7344  40.9521
    41.1768  42.4270  42.9274  43.0744  43.1789  44.2064  44.3913  45.4789
    46.4988  46.7390  47.3151  47.6151  47.7562  48.3850  49.5326  50.2339
    50.3461

          k = 0.2000-0.5000 0.1429 (  2658 PWs)   bands (ev):

   -34.9082 -34.9080  -7.2102  -7.1348  -5.6796  -5.6424  -4.5073  -4.4025
    -3.8362  -3.8268  -3.5952  -3.5270  -3.2430  -3.1599  10.4371  10.8413
    13.2260  13.3005  14.3014  14.3988  14.9486  14.9643  15.6532  15.6891
    16.2830  16.4805  17.2111  17.3372  17.3871  17.5371  19.8843  20.5790
    30.9310  31.0385  31.8235  31.9109  32.2626  32.5461  32.7987  32.8750
    33.2285  33.6173  34.2762  34.5530  36.5545  36.8772  37.5442  37.6774
    38.8592  39.3109  39.6851  39.8085  40.3330  40.6127  40.9866  41.1346
    41.8690  41.9087  42.7407  42.7555  43.6688  43.7026  44.2188  45.0669
    46.4064  46.5337  47.2979  47.4493  47.8438  47.9333  49.0730  49.3371
    50.3047

          k = 0.2000-0.5000 0.2857 (  2648 PWs)   bands (ev):

   -34.9059 -34.9057  -7.1165  -6.9674  -5.8172  -5.7711  -4.8144  -4.5753
    -3.7504  -3.7120  -3.5358  -3.4442  -3.2303  -3.1094  10.8767  11.6799
    13.4424  13.4955  14.0417  14.2776  14.9503  14.9717  15.5553  15.6495
    16.2821  16.4546  17.0722  17.3218  17.3905  17.5305  18.6365  19.8589
    31.0221  31.0583  31.6775  32.0689  32.0931  32.1191  32.6136  32.8160
    32.9773  33.6186  34.6894  34.9788  37.0736  37.4032  37.4720  38.0311
    39.0360  39.8442  39.8770  40.3001  40.6528  40.7904  41.0619  41.1016
    41.9662  42.1209  42.7354  42.8955  43.6036  44.2013  44.4752  45.1608
    45.9133  46.0402  46.7388  46.8645  47.8030  48.2430  48.4618  48.4715
    50.0814

          k = 0.2000-0.5000 0.4286 (  2646 PWs)   bands (ev):

   -34.9051 -34.9049  -7.1048  -6.7080  -5.8543  -5.8221  -5.3146  -4.6402
    -3.6556  -3.6350  -3.5010  -3.4582  -3.2018  -3.0205  10.9246  13.2745
    13.5141  13.7031  13.8221  14.4151  14.9869  15.1811  15.3359  15.5404
    15.8486  16.4932  16.7074  16.8054  17.4016  17.4068  17.6128  19.8348
    30.9307  31.0089  31.3222  31.8109  32.0432  32.3358  32.4086  32.9880
    32.9886  33.8670  35.6128  35.9476  36.2961  36.8508  37.2394  37.9322
    39.3809  39.7002  39.7509  40.5672  40.9834  41.3466  41.4447  41.5613
    41.5958  41.8006  42.4988  43.3589  44.6063  44.9900  45.2543  45.6299
    46.0422  46.1967  46.2033  47.2620  47.3322  48.0360  48.0369  48.8954
    49.1570

          k = 0.4000 0.0000 0.0000 (  2657 PWs)   bands (ev):

   -34.9123 -34.9040  -7.4459  -7.1059  -5.7831  -5.0955  -4.4515  -4.4515
    -3.8528  -3.8528  -3.5073  -3.3866  -3.3207  -3.3207   9.9125  10.0020
    13.0132  13.0132  13.3623  14.3931  15.1210  15.8279  15.8279  16.0674
    16.5784  16.7555  16.9988  16.9988  17.5451  17.5451  21.4581  21.4581
    30.9247  31.5403  31.5403  31.8190  32.6303  32.9943  33.6050  33.6430
    33.6430  33.7368  34.0923  34.3102  35.1122  35.1122  36.6056  37.3775
    38.1451  38.7087  38.7087  39.2815  40.3729  40.4769  40.5612  40.5612
    41.3804  42.0217  43.2793  43.7285  43.7285  44.8294  45.1874  45.1874
    45.2174  45.4988  46.4043  47.8587  47.8587  50.0428  50.4423  50.4427
    50.7559

          k = 0.4000 0.0000 0.1429 (  2659 PWs)   bands (ev):

   -34.9115 -34.9062  -7.4101  -7.0681  -5.8646  -5.1706  -4.4427  -4.4059
    -3.8509  -3.8098  -3.6201  -3.4371  -3.3765  -3.1836   9.9599  10.4115
    13.0459  13.0463  13.4952  14.3021  15.0142  15.5223  15.9407  16.0564
    16.6726  16.7013  16.9195  17.2716  17.4321  17.5798  20.6077  21.4462
    30.9597  31.3963  31.4966  32.0001  32.6876  32.9515  33.0875  33.1953
    33.3639  33.7450  33.8277  34.6065  35.5953  36.1217  36.6855  37.5888
    38.3524  38.8525  38.9131  39.4707  40.4065  40.4677  40.6921  40.7985
    41.6423  41.8820  43.0753  43.2818  43.5794  44.2695  44.7689  44.8254
    45.3407  46.8116  46.8340  47.7133  48.5080  49.0206  50.0347  50.3524
    50.5967

          k = 0.4000 0.0000 0.2857 (  2657 PWs)   bands (ev):

   -34.9110 -34.9059  -7.3500  -6.9543  -5.9645  -5.3050  -4.6798  -4.2820
    -3.8582  -3.7828  -3.6563  -3.5288  -3.3351  -3.0625  10.0013  11.6411
    13.1133  13.1243  13.7944  14.0685  14.9681  15.2562  15.6305  16.0104
    16.5283  16.7642  17.1800  17.2036  17.5335  17.6936  18.6620  21.4132
    30.8613  31.3047  31.3446  31.7628  32.1530  32.3813  32.9933  33.1143
    33.1533  33.7731  34.2074  35.5747  36.5122  36.5228  37.1700  37.5661
    38.5512  38.8842  39.2160  39.9809  40.5253  40.6969  40.8768  41.1533
    41.5008  41.8541  42.1001  43.3749  44.0352  44.7775  44.7791  45.0618
    45.7042  47.0547  47.7991  47.9396  48.2967  48.6644  48.8313  49.5518
    49.8651

          k = 0.4000 0.0000 0.4286 (  2657 PWs)   bands (ev):

   -34.9091 -34.9070  -7.3172  -6.8608  -5.8400  -5.5078  -5.0208  -4.1232
    -3.8651  -3.8116  -3.7029  -3.5818  -3.2298  -2.9905  10.0503  12.9536
    13.1966  13.4358  13.9835  14.0738  15.0822  15.1681  15.3029  15.7747
    15.9672  16.6722  16.8734  17.1451  17.5314  17.6364  17.8146  21.3853
    30.6624  30.8001  30.8945  31.7883  31.9465  32.2830  32.9856  33.2680
    33.4273  33.8921  35.0968  36.0260  36.2940  36.7583  37.3345  37.3673
    38.2411  39.1043  39.1148  39.6777  40.0749  40.8699  41.1795  41.6733
    41.9026  42.0940  43.3003  43.8926  44.1785  44.2143  45.4396  45.9835
    46.4739  47.3751  47.5328  47.6280  48.1258  48.4716  48.6298  48.6477
    48.7508

          k = 0.4000 0.1667 0.0000 (  2659 PWs)   bands (ev):

   -34.9107 -34.9070  -7.3997  -7.0538  -5.8871  -5.1918  -4.4572  -4.3904
    -3.8504  -3.7964  -3.6448  -3.4277  -3.3964  -3.1632   9.9652  10.5682
    13.0558  13.0567  13.5396  14.2694  14.9946  15.4676  15.9633  15.9904
    16.6814  16.7516  16.8946  17.3275  17.3969  17.5931  20.3310  21.4418
    30.9548  31.3913  31.4794  32.0125  32.6815  32.9241  32.9498  33.0593
    33.3138  33.7435  33.8437  34.7345  35.7378  36.3795  36.6952  37.5994
    38.4103  38.9046  38.9597  39.5363  40.3929  40.4882  40.7259  40.8946
    41.5031  41.9536  43.0697  43.2704  43.4856  44.1860  44.7381  44.7858
    45.4271  46.9026  47.1132  47.6861  48.5840  48.8645  49.6731  50.3513
    50.6042

          k = 0.4000 0.1667 0.1429 (  2662 PWs)   bands (ev):

   -34.9108 -34.9076  -7.3458  -7.0153  -5.9715  -5.2635  -4.5142  -4.3672
    -3.8369  -3.8045  -3.6275  -3.5267  -3.2649  -3.1845  10.4029  10.5890
    12.9804  13.2699  13.6189  14.2371  14.6665  15.6510  15.7377  16.2567
    16.4156  16.6475  17.2023  17.2761  17.4358  17.4984  20.3198  20.5925
    31.1075  31.1566  31.7086  32.0961  32.5511  32.6440  32.7885  32.8336
    33.2625  33.5695  33.9520  34.8069  36.3599  36.5786  36.9240  38.0371
    38.7401  38.8532  39.5226  39.5655  39.7868  40.5336  41.2341  41.3611
    41.4800  42.1188  42.7613  43.0363  43.6154  43.9870  44.0416  44.7593
    45.7174  46.8495  47.1017  47.6413  48.0034  48.7134  49.0746  49.5402
    50.4208

          k = 0.4000 0.1667 0.2857 (  2650 PWs)   bands (ev):

   -34.9071 -34.9057  -7.2419  -6.8931  -6.0908  -5.3921  -4.7932  -4.4305
    -3.8281  -3.7175  -3.5975  -3.4240  -3.2874  -3.1075  10.6054  11.6571
    12.9975  13.5052  13.8079  14.0495  14.4747  15.5368  15.6725  16.1299
    16.4762  16.5644  17.1155  17.3471  17.4265  17.5749  18.6534  20.2945
    31.0263  31.2160  31.6908  31.8356  32.2524  32.3374  32.6117  32.8301
    32.9847  33.5720  34.2145  35.5718  36.8158  36.9680  37.5897  38.0194
    38.7501  39.2924  39.7037  40.1107  40.1665  40.9951  41.1408  41.5899
    41.8537  41.9889  42.2983  43.1542  43.5443  43.9372  44.5811  45.1025
    45.8185  46.5492  47.0710  47.2785  47.5512  47.7523  48.2737  49.2321
    50.1290

          k = 0.4000 0.1667 0.4286 (  2652 PWs)   bands (ev):

   -34.9066 -34.9064  -7.1774  -6.7885  -5.9735  -5.6106  -5.1396  -4.4848
    -3.7575  -3.6933  -3.5424  -3.4622  -3.2313  -3.0311  10.6528  12.9761
    13.2554  13.6607  13.8332  13.9919  14.8035  15.3204  15.5797  15.8238
    16.0229  16.5486  16.8410  17.0905  17.4462  17.4737  17.6704  20.2706
    30.8459  30.9635  31.4118  31.7659  32.1631  32.2913  32.3854  33.0210
    33.0295  33.8752  34.9838  36.1427  36.4724  36.8287  37.5823  37.7343
    39.2216  39.3120  39.3701  40.5545  40.6392  41.2630  41.4170  41.5046
    41.7129  41.9697  42.8523  42.9992  43.8410  44.5935  45.2757  45.9542
    46.3127  46.3275  46.6869  46.9216  47.4499  47.6893  48.2213  49.1600
    49.2763

          k = 0.4000 0.3333 0.0000 (  2652 PWs)   bands (ev):

   -34.9089 -34.9057  -7.3350  -6.9131  -5.9561  -5.3569  -4.8106  -4.2283
    -3.8553  -3.7915  -3.6271  -3.5903  -3.2895  -3.0303  10.0198  12.1643
    13.1488  13.1529  13.8854  13.9999  14.9947  15.2064  15.5026  15.9883
    16.4264  16.7220  17.1278  17.3304  17.5799  17.7428  17.9672  21.4022
    30.8053  31.1546  31.1720  31.7388  31.9591  32.3566  33.0585  33.0816
    33.2775  33.8097  34.4575  35.8729  36.4885  36.8106  36.9675  37.5259
    38.5046  39.0320  39.2542  39.8634  40.5340  40.5653  40.9290  41.5491
    41.7361  41.9408  42.0789  43.3859  44.0693  44.6857  45.0861  45.5847
    46.0108  47.1576  47.5967  47.7561  48.1783  48.6974  49.0167  49.1119
    49.5159

          k = 0.4000 0.3333 0.1429 (  2654 PWs)   bands (ev):

   -34.9084 -34.9061  -7.2450  -6.8644  -6.0584  -5.4250  -4.9013  -4.3856
    -3.8293  -3.7366  -3.5979  -3.4427  -3.2847  -3.0640  10.4660  12.1797
    13.0198  13.4986  13.8562  13.9568  14.6146  15.4502  15.5933  16.0686
    16.4162  16.5932  17.0654  17.3728  17.4660  17.6407  17.9750  20.5605
    30.9504  31.0636  31.6182  31.7324  32.1192  32.4037  32.5111  32.9717
    32.9984  33.7296  34.4473  35.8900  36.6679  36.9345  37.5388  37.7686
    38.8690  39.1865  39.4464  40.2743  40.3754  41.0802  41.3444  41.6298
    41.7276  41.8438  42.2249  43.2838  43.3576  44.2759  45.3571  45.3948
    45.9118  46.6226  46.8712  47.2978  47.5265  47.6964  48.6517  49.1481
    49.6108

          k = 0.4000 0.3333 0.2857 (  2651 PWs)   bands (ev):

   -34.9064 -34.9055  -7.0186  -6.7063  -6.2647  -5.5274  -5.1459  -4.8567
    -3.6733  -3.5359  -3.4770  -3.3253  -3.2360  -3.1540  11.7041  12.2342
    13.0101  13.6681  13.7143  14.1398  14.4672  15.4668  15.9064  16.1216
    16.2828  16.5219  16.8965  17.2149  17.3621  17.4123  17.9317  18.6152
    31.1660  31.3758  31.5664  31.8672  32.2395  32.3477  32.6024  32.6879
    32.9387  33.2318  34.3869  36.0704  36.8118  37.0580  37.7645  38.2963
    39.2342  39.7838  40.0645  40.4665  40.8018  41.3367  41.4190  41.7924
    42.1923  42.6441  42.7203  43.1961  43.4915  43.8609  44.1150  44.8470
    45.7789  46.1623  46.2064  46.3917  47.2202  47.6884  47.8736  49.1226
    49.6120

          k = 0.4000 0.3333 0.4286 (  2646 PWs)   bands (ev):

   -34.9046 -34.9044  -6.8056  -6.5769  -6.2248  -5.7317  -5.4370  -5.1867
    -3.5226  -3.4330  -3.4035  -3.2775  -3.2283  -3.1456  12.2904  13.0495
    13.2783  13.4495  13.7120  14.4548  14.8254  15.5340  15.8137  15.9427
    16.0889  16.4011  16.7012  16.9359  17.1110  17.1809  17.2282  17.8729
    31.3176  31.4558  31.5628  32.0097  32.2053  32.4840  32.5485  32.6447
    32.7840  33.0912  35.1307  36.2988  36.6234  36.7354  37.6154  38.2792
    39.3172  39.8659  40.0775  40.3291  40.9290  41.4067  41.6977  41.8054
    42.4686  42.8453  43.3648  43.5217  43.9164  44.0319  44.4783  45.1618
    45.7860  45.9140  46.5054  47.0579  47.2984  47.5702  47.7260  48.4227
    49.4013

          k = 0.4000-0.5000 0.0000 (  2650 PWs)   bands (ev):

   -34.9067 -34.9067  -7.3127  -6.8486  -5.7144  -5.6404  -5.0708  -4.0865
    -3.8630  -3.8165  -3.7396  -3.5696  -3.2091  -2.9738  10.0589  13.0291
    13.2086  13.6040  14.0082  14.5198  15.0501  15.1833  15.2325  15.2428
    15.8860  16.6624  16.7639  17.0905  17.5774  17.6520  17.8324  21.3818
    30.5858  30.7471  30.8151  31.7614  32.1166  32.1672  32.9688  33.3821
    33.3927  33.9188  35.4462  36.0369  36.0689  36.5533  37.5440  37.5571
    38.0563  39.0619  39.0697  39.6322  39.8319  41.0076  41.2438  41.8853
    41.9317  42.2090  43.2907  43.9409  44.2712  44.9403  45.4113  45.5443
    46.4733  47.3743  47.3895  47.9045  47.9145  48.2787  48.5925  48.5981
    49.0792

          k = 0.4000-0.5000 0.1429 (  2650 PWs)   bands (ev):

   -34.9063 -34.9060  -7.2068  -6.7964  -5.7996  -5.7412  -5.1560  -4.4016
    -3.7660  -3.7346  -3.5399  -3.5212  -3.2140  -3.0066  10.5047  13.0020
    13.4663  13.5688  13.8745  14.4351  15.0311  15.0945  15.2892  15.4764
    15.9700  16.5706  16.7630  17.0489  17.4838  17.5270  17.7230  20.5420
    30.8008  30.8168  31.1963  31.7806  32.2118  32.3241  32.3860  33.1130
    33.1202  33.9384  35.3837  35.8636  36.2990  37.1306  37.4849  37.4933
    39.0329  39.1320  39.2479  40.4848  40.5392  41.1586  41.3629  41.5657
    41.7662  42.1161  42.9108  43.0841  44.1895  45.1282  45.2931  45.6897
    46.3838  46.6229  46.6497  47.0226  47.5183  48.1325  48.2466  48.8914
    49.4981

          k = 0.4000-0.5000 0.2857 (  2640 PWs)   bands (ev):

   -34.9035 -34.9034  -6.8992  -6.6583  -5.9570  -5.9290  -5.3623  -5.0136
    -3.5343  -3.5149  -3.4233  -3.3461  -3.2130  -3.0909  11.7495  13.0360
    13.4153  13.5543  14.0424  14.3735  15.0345  15.1720  15.5106  15.7237
    16.1325  16.3542  16.7513  16.8940  17.2254  17.2263  17.3615  18.5857
    31.2060  31.3567  31.6843  31.6848  32.0680  32.4302  32.5547  32.7561
    32.7712  33.4427  35.4982  35.7039  36.6256  36.8694  37.3479  38.5152
    39.2587  40.1593  40.3062  40.4544  40.9349  41.1649  41.4881  41.6657
    41.9076  42.6162  42.6268  43.3175  44.4941  44.6847  44.9344  45.0210
    45.6544  46.0319  46.1064  46.8202  47.4020  48.2045  48.3449  48.3469
    48.7564

          k = 0.4000-0.5000 0.4286 (  2640 PWs)   bands (ev):

   -34.9027 -34.9027  -6.5228  -6.4508  -6.0466  -6.0418  -5.6591  -5.5721
    -3.3740  -3.3711  -3.2953  -3.2773  -3.2085  -3.1791  13.1234  13.2001
    13.2842  13.5914  14.4297  14.4648  15.1090  15.2422  15.7721  15.8621
    16.1585  16.2414  16.6138  16.6299  16.8196  16.8640  16.8834  16.9472
    31.6183  31.6246  31.8542  31.9065  32.3256  32.5473  32.5788  32.5936
    32.6722  32.7468  36.0889  36.1598  36.7080  36.7187  37.4147  37.7531
    39.3276  39.3526  39.9900  40.1131  40.8922  40.8935  41.5229  41.5939
    43.3283  43.4097  43.9585  44.0524  44.5977  45.1082  45.2425  45.3546
    46.3088  46.4100  46.4483  46.6160  47.0203  47.2045  48.2114  48.6786
    48.7372

     the Fermi energy is    44.0380 ev

!    total energy              =   -1115.18354574 Ry
     Harris-Foulkes estimate   =   -1115.18358009 Ry
     estimated scf accuracy    <       0.00004166 Ry

     The total energy is the sum of the following terms:

     one-electron contribution =     218.94453229 Ry
     hartree contribution      =      67.42962769 Ry
     xc contribution           =    -132.03143693 Ry
     ewald contribution        =   -1269.26010780 Ry
     smearing contrib. (-TS)   =      -0.26616099 Ry

     convergence has been achieved in   8 iterations

     Forces acting on atoms (Ry/au):

     atom    1 type  1   force =     0.00000000    0.00000000    0.00000000
     atom    2 type  1   force =     0.00000000    0.00000000    0.00000000
     atom    3 type  1   force =     0.00000000    0.00000000    0.00000000
     atom    4 type  1   force =     0.00000000    0.00000000    0.00000000
     atom    5 type  1   force =     0.00000000    0.00000000    0.00000000
     atom    6 type  1   force =     0.00000000    0.00000000    0.00000000
     atom    7 type  2   force =     0.00000000    0.00000000    0.00000000
     atom    8 type  2   force =     0.00000000    0.00000000    0.00000000

     Total force =     0.000000     Total SCF correction =     0.000000


     entering subroutine stress ...

          total   stress  (Ry/bohr**3)                   (kbar)     P= 4871.59
   0.03311641   0.00000000   0.00000000       4871.59      0.00      0.00
   0.00000000   0.03311641   0.00000000          0.00   4871.59      0.00
   0.00000000   0.00000000   0.03311641          0.00      0.00   4871.59


     BFGS Geometry Optimization

     number of scf cycles    =   1
     number of bfgs steps    =   0

     enthalpy new            =   -1115.1835457392 Ry

     new trust radius        =       0.5000000000 bohr
     new conv_thr            =       0.0001000000 Ry

     new unit-cell volume =    828.02266 a.u.^3 (   122.70030 Ang^3 )

CELL_PARAMETERS (alat=  8.53457320)
   1.100269143   0.000000000   0.000000000
   0.000000000   1.100269143   0.000000000
   0.000000000   0.000000000   1.100269143

ATOMIC_POSITIONS (crystal)
Cr       0.000000000   0.500000000   0.250000000
Cr       0.000000000   0.500000000   0.750000000
Cr       0.500000000   0.750000000   0.000000000
Cr       0.500000000   0.250000000   0.000000000
Cr       0.750000000   0.000000000   0.500000000
Cr       0.250000000   0.000000000   0.500000000
Si       0.500000000   0.500000000   0.500000000
Si       0.000000000   0.000000000   0.000000000



     Writing output data file Prototype-La-cP8-Cr3Si.save
     NEW-OLD atomic charge density approx. for the potential
     NEW k-points:
        k(    1) = (   0.0000000   0.0000000   0.0000000), wk =   0.0095238
        k(    2) = (   0.0000000   0.0000000   0.1298384), wk =   0.0190476
        k(    3) = (   0.0000000   0.0000000   0.2596767), wk =   0.0190476
        k(    4) = (   0.0000000   0.0000000   0.3895151), wk =   0.0190476
        k(    5) = (   0.0000000   0.1514781   0.0000000), wk =   0.0190476
        k(    6) = (   0.0000000   0.1514781   0.1298384), wk =   0.0380952
        k(    7) = (   0.0000000   0.1514781   0.2596767), wk =   0.0380952
        k(    8) = (   0.0000000   0.1514781   0.3895151), wk =   0.0380952
        k(    9) = (   0.0000000   0.3029562   0.0000000), wk =   0.0190476
        k(   10) = (   0.0000000   0.3029562   0.1298384), wk =   0.0380952
        k(   11) = (   0.0000000   0.3029562   0.2596767), wk =   0.0380952
        k(   12) = (   0.0000000   0.3029562   0.3895151), wk =   0.0380952
        k(   13) = (   0.0000000  -0.4544343   0.0000000), wk =   0.0095238
        k(   14) = (   0.0000000  -0.4544343   0.1298384), wk =   0.0190476
        k(   15) = (   0.0000000  -0.4544343   0.2596767), wk =   0.0190476
        k(   16) = (   0.0000000  -0.4544343   0.3895151), wk =   0.0190476
        k(   17) = (   0.1817737   0.0000000   0.0000000), wk =   0.0190476
        k(   18) = (   0.1817737   0.0000000   0.1298384), wk =   0.0380952
        k(   19) = (   0.1817737   0.0000000   0.2596767), wk =   0.0380952
        k(   20) = (   0.1817737   0.0000000   0.3895151), wk =   0.0380952
        k(   21) = (   0.1817737   0.1514781   0.0000000), wk =   0.0380952
        k(   22) = (   0.1817737   0.1514781   0.1298384), wk =   0.0761905
        k(   23) = (   0.1817737   0.1514781   0.2596767), wk =   0.0761905
        k(   24) = (   0.1817737   0.1514781   0.3895151), wk =   0.0761905
        k(   25) = (   0.1817737   0.3029562   0.0000000), wk =   0.0380952
        k(   26) = (   0.1817737   0.3029562   0.1298384), wk =   0.0761905
        k(   27) = (   0.1817737   0.3029562   0.2596767), wk =   0.0761905
        k(   28) = (   0.1817737   0.3029562   0.3895151), wk =   0.0761905
        k(   29) = (   0.1817737  -0.4544343   0.0000000), wk =   0.0190476
        k(   30) = (   0.1817737  -0.4544343   0.1298384), wk =   0.0380952
        k(   31) = (   0.1817737  -0.4544343   0.2596767), wk =   0.0380952
        k(   32) = (   0.1817737  -0.4544343   0.3895151), wk =   0.0380952
        k(   33) = (   0.3635474   0.0000000   0.0000000), wk =   0.0190476
        k(   34) = (   0.3635474   0.0000000   0.1298384), wk =   0.0380952
        k(   35) = (   0.3635474   0.0000000   0.2596767), wk =   0.0380952
        k(   36) = (   0.3635474   0.0000000   0.3895151), wk =   0.0380952
        k(   37) = (   0.3635474   0.1514781   0.0000000), wk =   0.0380952
        k(   38) = (   0.3635474   0.1514781   0.1298384), wk =   0.0761905
        k(   39) = (   0.3635474   0.1514781   0.2596767), wk =   0.0761905
        k(   40) = (   0.3635474   0.1514781   0.3895151), wk =   0.0761905
        k(   41) = (   0.3635474   0.3029562   0.0000000), wk =   0.0380952
        k(   42) = (   0.3635474   0.3029562   0.1298384), wk =   0.0761905
        k(   43) = (   0.3635474   0.3029562   0.2596767), wk =   0.0761905
        k(   44) = (   0.3635474   0.3029562   0.3895151), wk =   0.0761905
        k(   45) = (   0.3635474  -0.4544343   0.0000000), wk =   0.0190476
        k(   46) = (   0.3635474  -0.4544343   0.1298384), wk =   0.0380952
        k(   47) = (   0.3635474  -0.4544343   0.2596767), wk =   0.0380952
        k(   48) = (   0.3635474  -0.4544343   0.3895151), wk =   0.0380952

     total cpu time spent up to now is      178.2 secs

     Self-consistent Calculation

     iteration #  1     ecut=    40.00 Ry     beta=0.70
     CG style diagonalization
     c_bands:  4 eigenvalues not converged
     c_bands:  4 eigenvalues not converged
     c_bands:  4 eigenvalues not converged
     c_bands:  3 eigenvalues not converged
     c_bands:  2 eigenvalues not converged
     c_bands:  1 eigenvalues not converged
     c_bands:  4 eigenvalues not converged
     c_bands:  1 eigenvalues not converged
     c_bands:  1 eigenvalues not converged
     c_bands:  1 eigenvalues not converged
     c_bands:  1 eigenvalues not converged
     c_bands:  1 eigenvalues not converged
     c_bands:  1 eigenvalues not converged
     c_bands:  1 eigenvalues not converged
     c_bands:  2 eigenvalues not converged
     c_bands:  2 eigenvalues not converged
     c_bands:  1 eigenvalues not converged
     c_bands:  1 eigenvalues not converged
     ethr =  1.00E-06,  avg # of iterations = 20.1

     total cpu time spent up to now is      240.3 secs

     total energy              =   -1113.53458857 Ry
     Harris-Foulkes estimate   =   -1126.43104295 Ry
     estimated scf accuracy    <      16.97632869 Ry

     iteration #  2     ecut=    40.00 Ry     beta=0.70
     CG style diagonalization
     ethr =  1.00E-02,  avg # of iterations =  4.0

     total cpu time spent up to now is      252.5 secs

     total energy              =   -1113.65261924 Ry
     Harris-Foulkes estimate   =   -1120.57991836 Ry
     estimated scf accuracy    <      11.75926345 Ry

     iteration #  3     ecut=    40.00 Ry     beta=0.70
     CG style diagonalization
     ethr =  9.64E-03,  avg # of iterations =  3.5

     total cpu time spent up to now is      263.5 secs

     total energy              =   -1118.55021851 Ry
     Harris-Foulkes estimate   =   -1119.79387510 Ry
     estimated scf accuracy    <       2.84576464 Ry

     iteration #  4     ecut=    40.00 Ry     beta=0.70
     CG style diagonalization
     ethr =  2.33E-03,  avg # of iterations =  3.4

     total cpu time spent up to now is      274.2 secs

     total energy              =   -1118.69350703 Ry
     Harris-Foulkes estimate   =   -1118.85592224 Ry
     estimated scf accuracy    <       0.39507877 Ry

     iteration #  5     ecut=    40.00 Ry     beta=0.70
     CG style diagonalization
     ethr =  3.24E-04,  avg # of iterations =  3.5

     total cpu time spent up to now is      285.4 secs

     total energy              =   -1118.77151067 Ry
     Harris-Foulkes estimate   =   -1118.77640578 Ry
     estimated scf accuracy    <       0.01021408 Ry

     iteration #  6     ecut=    40.00 Ry     beta=0.70
     CG style diagonalization
     c_bands:  1 eigenvalues not converged
     c_bands:  1 eigenvalues not converged
     c_bands:  1 eigenvalues not converged
     ethr =  8.37E-06,  avg # of iterations =  4.6

     total cpu time spent up to now is      300.6 secs

     total energy              =   -1118.77583142 Ry
     Harris-Foulkes estimate   =   -1118.77609682 Ry
     estimated scf accuracy    <       0.00041996 Ry

     iteration #  7     ecut=    40.00 Ry     beta=0.70
     CG style diagonalization
     ethr =  3.44E-07,  avg # of iterations =  4.3

     total cpu time spent up to now is      314.9 secs

     total energy              =   -1118.77593443 Ry
     Harris-Foulkes estimate   =   -1118.77607879 Ry
     estimated scf accuracy    <       0.00025609 Ry

     iteration #  8     ecut=    40.00 Ry     beta=0.70
     CG style diagonalization
     ethr =  2.10E-07,  avg # of iterations =  3.5

     total cpu time spent up to now is      325.5 secs

     End of self-consistent calculation

          k = 0.0000 0.0000 0.0000 (  2601 PWs)   bands (ev):

   -44.4319 -44.3823 -17.0108 -16.5069 -16.5069 -15.4007 -15.4007 -15.4007
   -12.7567 -12.7567 -12.7567 -12.7415 -12.7415 -12.7415   1.8996   1.8996
     2.5355   4.2231   4.2231   4.2231   5.7156   5.7156   5.7156   6.0856
     6.0856   6.0856   6.4049   6.4049   6.4049   8.6152   8.6152   8.6152
    23.0055  23.0055  23.9785  24.0958  24.0958  24.0958  24.2388  24.2388
    24.4754  24.4754  24.4754  24.9689  24.9689  24.9689  25.2970  26.7866
    26.9790  27.4002  27.4002  27.4002  27.7160  27.7160  30.9285  30.9285
    30.9285  31.0688  31.0688  32.0867  32.0867  32.0867  33.2497  33.2497
    33.2497  35.8585  35.8585  36.5862  36.5862  36.5862  37.4800  37.4801
    37.4935

          k = 0.0000 0.0000 0.1298 (  2657 PWs)   bands (ev):

   -44.4656 -44.4365 -16.9855 -16.5363 -16.4675 -15.4704 -15.4010 -15.4010
   -12.8226 -12.8226 -12.8026 -12.7657 -12.7657 -12.7521   1.9006   2.0057
     2.6104   4.2129   4.2129   4.3172   5.6422   5.6422   5.7223   5.9769
     6.1801   6.1801   6.3429   6.3504   6.3504   8.1825   8.6036   8.6036
    22.9399  23.1790  23.7356  23.8678  23.8678  24.0849  24.0985  24.2267
    24.3857  24.3934  24.3934  24.7793  25.1633  25.1633  26.5523  26.9298
    27.0946  27.1467  27.6384  27.6384  27.6424  28.1832  30.5320  30.5320
    30.7740  30.8644  30.9126  32.0584  32.3819  32.3819  33.3883  33.3883
    33.8807  35.2640  35.2655  36.2189  36.2189  36.9714  36.9714  37.1673
    37.7785

          k = 0.0000 0.0000 0.2597 (  2677 PWs)   bands (ev):

   -44.4746 -44.4587 -16.9169 -16.6132 -16.3467 -15.6505 -15.3959 -15.3959
   -12.8319 -12.8319 -12.7855 -12.7850 -12.7850 -12.7785   1.9479   2.0963
     3.1818   4.1967   4.1967   4.5628   5.5999   5.5999   5.6501   5.8107
     6.2384   6.2747   6.2747   6.3410   6.3410   7.0527   8.5889   8.5889
    22.6684  23.3719  23.3735  23.3735  23.6347  23.7961  24.0712  24.2275
    24.3499  24.3499  24.7116  24.8435  25.6127  25.6127  26.4390  27.1521
    27.3884  27.8756  28.0886  28.0886  28.4723  29.7990  30.0876  30.0876
    30.0896  30.5855  30.6996  31.7234  32.1370  32.1370  33.6093  33.6093
    34.3710  34.5345  34.5866  36.2830  36.2830  36.6252  36.6253  37.6133
    38.5178

          k = 0.0000 0.0000 0.3895 (  2658 PWs)   bands (ev):

   -44.4530 -44.4512 -16.8201 -16.7140 -16.1459 -15.8960 -15.3912 -15.3912
   -12.8155 -12.8155 -12.7927 -12.7927 -12.7467 -12.7266   2.0067   2.0628
     4.1807   4.1807   4.2680   4.9170   5.2381   5.5963   5.5963   5.6891
     5.9461   6.0996   6.2196   6.2196   6.4659   6.4659   8.5871   8.5871
    22.6458  23.0006  23.0256  23.0256  23.8121  23.8330  24.0721  24.1174
    24.3357  24.3357  24.6938  24.8874  26.0533  26.0533  26.9349  27.1865
    27.4578  28.3871  28.3871  28.8211  28.8970  29.8199  29.8199  29.9034
    30.1565  30.5407  31.5962  31.5962  31.7741  32.0460  33.7770  33.7770
    33.8626  33.9107  34.0275  35.3503  35.9066  35.9066  37.6877  37.6877
    38.2946

          k = 0.0000 0.1515 0.0000 (  2653 PWs)   bands (ev):

   -44.4603 -44.4364 -16.9761 -16.5459 -16.4531 -15.4935 -15.4002 -15.4002
   -12.8188 -12.8188 -12.7904 -12.7668 -12.7668 -12.7493   1.9071   2.0352
     2.6609   4.2129   4.2129   4.3555   5.6329   5.6329   5.7334   5.9353
     6.2074   6.2074   6.3297   6.3412   6.3412   8.0384   8.6040   8.6040
    22.9037  23.2265  23.6716  23.7921  23.7921  24.0535  24.0826  24.3158
    24.3596  24.3818  24.3818  24.7671  25.2257  25.2257  26.8274  26.8368
    27.1519  27.1986  27.6243  27.7120  27.7120  28.3735  30.4470  30.4470
    30.6853  30.8382  30.8744  32.0284  32.3990  32.3990  33.4365  33.4365
    34.0488  35.1093  35.1345  36.1776  36.1776  36.8565  36.8565  37.2930
    37.8922

          k = 0.0000 0.1515 0.1298 (  2662 PWs)   bands (ev):

   -44.4726 -44.4391 -16.9502 -16.5335 -16.4541 -15.5003 -15.4612 -15.3980
   -12.8324 -12.8200 -12.7986 -12.7926 -12.7657 -12.7295   1.9684   2.1745
     2.6952   4.2189   4.3085   4.3457   5.5291   5.5461   5.8354   6.0285
     6.1195   6.2100   6.2637   6.3080   6.4154   8.0195   8.1754   8.5991
    22.9785  23.2776  23.6269  23.6919  23.7421  23.7531  23.8771  24.1963
    24.3112  24.3274  24.4669  24.5086  25.4200  26.0852  27.0179  27.1720
    27.2978  27.3909  27.4674  27.9667  28.0235  28.3546  30.0613  30.3038
    30.6169  30.7081  31.0986  31.7970  32.5913  32.6394  33.2727  33.7274
    33.9965  34.5233  35.0280  36.0877  36.4395  36.4567  36.7645  37.3245
    37.5161

          k = 0.0000 0.1515 0.2597 (  2666 PWs)   bands (ev):

   -44.4650 -44.4536 -16.8794 -16.5817 -16.3578 -15.6583 -15.4858 -15.3924
   -12.8242 -12.8169 -12.8081 -12.7906 -12.7673 -12.7223   2.0090   2.3684
     3.1624   4.2295   4.3292   4.5504   5.4055   5.4575   5.8646   5.8649
     6.1433   6.2094   6.2471   6.3799   6.4280   7.0764   8.0220   8.5899
    22.7771  23.2408  23.2949  23.4369  23.5696  23.7207  23.7889  24.0268
    24.1839  24.3421  24.4928  25.0228  25.8836  26.4875  26.7918  27.2050
    27.6320  28.1672  28.1713  28.4409  28.7030  29.4917  29.7836  30.0425
    30.2759  30.4616  30.9877  31.5298  32.1389  32.4443  33.0633  33.7397
    33.8027  34.4625  35.0933  35.9058  36.2540  36.2556  36.5985  37.3564
    37.5184

          k = 0.0000 0.1515 0.3895 (  2658 PWs)   bands (ev):

   -44.4570 -44.4485 -16.7898 -16.6694 -16.1596 -15.9067 -15.4849 -15.3880
   -12.8206 -12.8159 -12.7983 -12.7967 -12.7341 -12.7048   2.0302   2.3811
     4.1336   4.2369   4.4144   4.8615   5.1891   5.4611   5.6050   5.7698
     5.7777   6.1745   6.1784   6.3815   6.3942   6.4828   8.0179   8.5902
    22.6391  22.8987  22.9407  23.2427  23.7424  23.7794  23.8189  23.9906
    24.0799  24.3802  24.6768  25.0726  26.3452  26.7717  26.9666  27.1764
    27.9767  28.4568  28.6992  28.7678  29.1203  29.8425  29.9519  29.9671
    30.1764  30.4464  31.3290  31.4213  31.8789  32.4353  33.0015  33.2810
    33.4947  34.4818  35.0323  35.1261  35.5463  36.0542  36.6869  37.2193
    37.8199

          k = 0.0000 0.3030 0.0000 (  2677 PWs)   bands (ev):

   -44.4746 -44.4581 -16.8866 -16.6458 -16.2877 -15.7290 -15.3937 -15.3937
   -12.8323 -12.8323 -12.7972 -12.7972 -12.7796 -12.7480   1.9673   2.0936
     3.4912   4.1892   4.1892   4.6676   5.5120   5.5953   5.5953   5.8521
     6.1989   6.2510   6.2510   6.3901   6.3901   6.6220   8.5805   8.5805
    22.6149  23.2266  23.2266  23.3009  23.6906  23.7715  24.0687  24.1838
    24.3431  24.3431  24.6923  24.9588  25.7802  25.7802  26.5022  27.1700
    27.3226  28.1996  28.2167  28.2167  29.0622  29.7912  29.9759  29.9759
    30.4090  30.5420  30.6412  31.6169  31.9388  31.9388  33.6600  33.6600
    34.1515  34.3320  34.4898  36.1366  36.1366  36.9448  36.9861  36.9865
    38.6454

          k = 0.0000 0.3030 0.1298 (  2660 PWs)   bands (ev):

   -44.4576 -44.4514 -16.8584 -16.6190 -16.2979 -15.7340 -15.4624 -15.3914
   -12.8167 -12.8155 -12.7988 -12.7916 -12.7603 -12.7155   2.0136   2.2917
     3.4755   4.2228   4.2957   4.6599   5.3715   5.4793   5.7681   5.8645
     6.1309   6.2122   6.2872   6.3938   6.4216   6.6560   8.1667   8.5933
    22.6900  23.1154  23.1699  23.3838  23.6643  23.7465  23.8485  24.0729
    24.1456  24.3531  24.5376  25.0809  25.9867  26.4554  26.6706  27.1895
    27.7317  28.1237  28.3896  28.5002  29.1885  29.4218  29.9639  30.1775
    30.3496  30.5108  30.8478  31.2890  31.9158  32.3017  33.1135  33.6844
    33.7042  34.5572  34.9679  35.8018  36.3120  36.4031  36.5841  37.0333
    37.7462

          k = 0.0000 0.3030 0.2597 (  2658 PWs)   bands (ev):

   -44.4614 -44.4462 -16.8004 -16.5496 -16.2966 -15.7643 -15.6302 -15.3861
   -12.8239 -12.8118 -12.8014 -12.7921 -12.7310 -12.6944   2.0323   2.9720
     3.4710   4.2967   4.5195   4.6214   5.2587   5.3419   5.6559   5.8855
     6.0954   6.1457   6.2872   6.4487   6.5109   6.6593   7.1184   8.5861
    22.7058  22.9295  23.0221  23.1734  23.5282  23.5503  23.8341  23.8607
    24.1049  24.3993  24.7213  25.4526  26.5202  26.7521  27.0259  27.3239
    27.9424  28.8843  28.9583  29.0132  29.4306  29.7188  29.9315  29.9886
    30.1265  30.2294  30.4864  31.3188  32.4018  32.6358  32.7340  33.1804
    33.6760  34.4362  35.3991  35.4630  35.6523  36.0200  36.3862  36.5337
    37.0330

          k = 0.0000 0.3030 0.3895 (  2654 PWs)   bands (ev):

   -44.4519 -44.4481 -16.7579 -16.5111 -16.1738 -15.9398 -15.7133 -15.3811
   -12.8318 -12.8200 -12.8107 -12.7922 -12.6901 -12.6634   2.0435   3.3378
     4.1129   4.3628   4.6331   4.7305   5.2170   5.3034   5.4594   5.5662
     5.8318   6.0838   6.2206   6.4054   6.4879   6.5582   6.7045   8.5735
    22.5601  22.6462  22.7519  23.2253  23.4295  23.4401  23.9532  23.9716
    24.0571  24.4676  25.1195  25.6224  26.5287  26.8632  27.1135  27.5994
    28.6553  28.7455  28.9827  29.3119  29.4767  29.6453  30.0261  30.1865
    30.2510  30.4260  30.6136  31.9892  32.6790  32.7021  32.7477  33.0175
    33.5646  34.4032  34.6953  35.2367  35.3896  35.7691  36.2452  36.2986
    36.8736

          k = 0.0000-0.4544 0.0000 (  2666 PWs)   bands (ev):

   -44.4576 -44.4576 -16.7677 -16.7677 -16.0242 -16.0242 -15.3904 -15.3904
   -12.8217 -12.8217 -12.7983 -12.7983 -12.7403 -12.7403   2.0314   2.0314
     4.1784   4.1784   4.8780   4.8780   5.1451   5.1451   5.5956   5.5956
     6.0212   6.0212   6.2070   6.2070   6.4806   6.4806   8.5856   8.5856
    22.7856  22.7856  22.9776  22.9776  23.8536  23.8536  24.0875  24.0875
    24.3340  24.3340  24.7621  24.7621  26.1285  26.1285  27.0866  27.0866
    28.0986  28.0986  28.4229  28.4229  29.4217  29.4217  29.7793  29.7793
    30.4372  30.4372  31.5017  31.5017  32.2823  32.2823  33.8176  33.8176
    33.9063  33.9063  34.1498  34.1498  35.8450  35.8450  37.8771  37.8771
    38.5928

          k = 0.0000-0.4544 0.1298 (  2666 PWs)   bands (ev):

   -44.4581 -44.4579 -16.7638 -16.7163 -16.0345 -16.0333 -15.4605 -15.3881
   -12.8280 -12.8208 -12.8098 -12.8018 -12.7293 -12.7172   2.0352   2.2887
     4.2229   4.2282   4.8801   4.8918   5.0380   5.1622   5.4934   5.6876
     5.8081   6.1516   6.1743   6.3636   6.4104   6.4890   8.1579   8.5849
    22.6524  22.8384  22.9161  23.1667  23.8070  23.8350  23.8461  24.0500
    24.0686  24.3746  24.7313  24.9267  26.3465  26.6409  27.0617  27.2888
    28.0710  28.2693  28.6001  28.6654  29.5034  29.5698  29.8037  29.9556
    30.1745  30.5882  31.3013  31.3653  32.0160  32.9067  33.0961  33.3350
    33.6523  33.9980  34.5499  34.9397  35.4492  35.9725  36.9883  37.5138
    37.9107

          k = 0.0000-0.4544 0.2597 (  2658 PWs)   bands (ev):

   -44.4528 -44.4526 -16.7548 -16.5712 -16.0569 -16.0535 -15.6439 -15.3827
   -12.8341 -12.8249 -12.8131 -12.7955 -12.6947 -12.6711   2.0390   3.0188
     4.3197   4.3309   4.8100   4.9322   4.9668   5.2242   5.3428   5.5092
     5.7959   6.0989   6.2591   6.3639   6.4684   6.5385   7.1073   8.5746
    22.5506  22.6985  22.8138  23.2764  23.4169  23.4908  23.9261  23.9630
    24.0528  24.4515  25.0631  25.3701  26.7269  26.8632  26.9620  27.7155
    28.4892  28.8850  28.9160  29.0599  29.4709  29.6502  29.8477  29.9636
    29.9961  30.7279  30.7727  32.2611  32.3023  32.7153  32.7450  33.4640
    33.5506  33.6437  34.7511  35.1624  35.4887  36.0488  36.2135  36.3514
    36.6679

          k = 0.0000-0.4544 0.3895 (  2662 PWs)   bands (ev):

   -44.4559 -44.4559 -16.7489 -16.3924 -16.0755 -16.0735 -15.8508 -15.3774
   -12.8314 -12.8301 -12.8217 -12.7993 -12.6821 -12.6535   2.0535   4.0522
     4.3721   4.4492   4.7068   4.9729   4.9862   5.2628   5.2844   5.3012
     5.5221   6.0380   6.0860   6.1275   6.5018   6.5118   6.5944   8.5628
    22.4506  22.4777  22.5188  23.3473  23.3578  23.3691  24.0426  24.0530
    24.0544  24.5266  25.7243  25.8297  26.1457  26.7552  27.2703  27.8035
    28.4035  28.9210  29.1125  29.1748  29.5053  29.7435  30.1697  30.1871
    30.3928  30.4226  31.9055  32.3304  32.7112  32.8069  33.2392  33.2533
    33.5102  33.9078  34.5214  34.8003  34.9468  35.5780  35.6115  36.1396
    36.2237

          k = 0.1818 0.0000 0.0000 (  2661 PWs)   bands (ev):

   -44.4737 -44.4360 -16.9629 -16.5620 -16.4292 -15.5310 -15.3990 -15.3990
   -12.8296 -12.8296 -12.8013 -12.7685 -12.7685 -12.7449   1.9175   2.0678
     2.7612   4.2088   4.2088   4.4075   5.6201   5.6201   5.7518   5.8613
     6.2426   6.2426   6.3084   6.3278   6.3278   7.7954   8.5971   8.5971
    22.8392  23.2902  23.6198  23.6766  23.6766  23.9793  24.0792  24.3217
    24.3693  24.3693  24.4589  24.7514  25.3235  25.3235  26.6778  27.1547
    27.2195  27.3641  27.6258  27.8175  27.8175  28.6985  30.3345  30.3345
    30.5456  30.7897  30.8219  31.9640  32.3791  32.3791  33.4999  33.4999
    34.2709  34.8887  34.9566  36.1801  36.1801  36.7000  36.7000  37.4636
    38.0720

          k = 0.1818 0.0000 0.1298 (  2667 PWs)   bands (ev):

   -44.4682 -44.4510 -16.9353 -16.5449 -16.4345 -15.5360 -15.4632 -15.3971
   -12.8321 -12.8165 -12.8092 -12.7856 -12.7745 -12.7368   1.9782   2.2252
     2.7760   4.2191   4.3048   4.3960   5.5089   5.5140   5.8540   5.9797
     6.1564   6.1816   6.2887   6.2949   6.4163   7.7840   8.1690   8.5971
    22.9278  23.3333  23.5498  23.6259  23.6275  23.7349  23.8657  24.1568
    24.2790  24.3272  24.4612  24.6336  25.5194  26.1838  26.9311  27.2239
    27.4055  27.6157  27.6195  28.0363  28.0780  28.6510  29.9430  30.2300
    30.5296  30.6611  31.1262  31.6967  32.5352  32.6237  33.2431  33.7500
    34.1243  34.3390  35.0029  36.1116  36.3186  36.3556  36.7933  37.2954
    37.6136

          k = 0.1818 0.0000 0.2597 (  2659 PWs)   bands (ev):

   -44.4582 -44.4506 -16.8646 -16.5702 -16.3582 -15.6631 -15.5214 -15.3914
   -12.8157 -12.8082 -12.7983 -12.7956 -12.7573 -12.7162   2.0157   2.5032
     3.1662   4.2423   4.3804   4.5454   5.3751   5.4230   5.8392   5.9048
     6.1647   6.1821   6.2233   6.3933   6.4503   7.0778   7.7969   8.5914
    22.7938  23.2139  23.2474  23.4039  23.5312  23.7050  23.7340  23.9460
    24.1733  24.3459  24.5126  25.1049  25.9928  26.6429  26.9417  27.2212
    27.5458  28.2939  28.4624  28.5572  28.8129  29.4131  29.7613  30.0310
    30.2119  30.4186  30.8652  31.7787  32.0439  32.4482  32.9554  33.6694
    33.7793  34.4043  35.2178  35.8160  36.1309  36.1313  36.6317  37.2084
    37.4119

          k = 0.1818 0.0000 0.3895 (  2660 PWs)   bands (ev):

   -44.4583 -44.4501 -16.7815 -16.6462 -16.1643 -15.9113 -15.5234 -15.3867
   -12.8223 -12.8208 -12.8027 -12.8003 -12.7231 -12.7012   2.0323   2.5274
     4.1252   4.2579   4.4573   4.8372   5.1807   5.4233   5.6000   5.7118
     5.7936   6.1561   6.2255   6.3532   6.4244   6.4947   7.7888   8.5890
    22.6276  22.8979  22.9011  23.2591  23.6613  23.6871  23.8320  23.9397
    24.0750  24.3951  24.7233  25.1669  26.4680  26.8767  26.9899  27.2120
    28.1322  28.5752  28.7848  28.8008  29.2105  29.8646  29.8802  29.9947
    30.0136  30.4679  31.3021  31.5904  31.8790  32.4818  32.8963  33.1227
    33.5151  34.5746  34.9165  35.3818  35.4596  36.0044  36.4494  36.9790
    37.6324

          k = 0.1818 0.1515 0.0000 (  2672 PWs)   bands (ev):

   -44.4673 -44.4605 -16.9261 -16.5428 -16.4316 -15.5404 -15.4833 -15.3965
   -12.8277 -12.8258 -12.8085 -12.7909 -12.7897 -12.7297   1.9845   2.2862
     2.7878   4.2234   4.3376   4.3927   5.4873   5.4882   5.8649   6.0016
     6.1342   6.1659   6.2755   6.3009   6.4252   7.7793   8.0282   8.5929
    22.9341  23.3507  23.5085  23.5927  23.5957  23.7115  23.8111  24.1050
    24.2707  24.3185  24.4523  24.6964  25.5837  26.3339  26.9923  27.2129
    27.3762  27.7060  27.7073  28.1556  28.2187  28.6423  29.8658  30.1977
    30.4796  30.6275  31.1779  31.6741  32.5237  32.6278  33.1814  33.8388
    34.0687  34.2146  35.0229  36.0956  36.2471  36.3455  36.7773  37.3451
    37.5208

          k = 0.1818 0.1515 0.1298 (  2665 PWs)   bands (ev):

   -44.4668 -44.4505 -16.8954 -16.5085 -16.4548 -15.5402 -15.4937 -15.4542
   -12.8322 -12.8163 -12.8120 -12.7839 -12.7506 -12.7342   2.2039   2.3131
     2.7853   4.3204   4.3495   4.3992   5.2397   5.7242   5.7974   6.0173
     6.1082   6.1697   6.2258   6.3600   6.4009   7.7815   8.0219   8.1720
    23.0920  23.2992  23.4570  23.4871  23.6177  23.6956  23.7286  24.0039
    24.0996  24.1471  24.2074  24.8633  26.2362  26.4422  27.2832  27.5517
    27.7634  27.8762  27.9221  27.9830  28.2302  28.5735  29.7517  29.8849
    30.6237  30.8949  31.1628  31.7945  32.4294  32.5804  33.1691  33.2773
    33.6380  34.8654  35.0269  35.9277  35.9769  36.1721  36.2241  37.2830
    37.3997

          k = 0.1818 0.1515 0.2597 (  2655 PWs)   bands (ev):

   -44.4630 -44.4384 -16.8184 -16.5311 -16.3820 -15.6661 -15.5304 -15.4798
   -12.8153 -12.8093 -12.8037 -12.7575 -12.7504 -12.7121   2.3391   2.5322
     3.1353   4.3709   4.4110   4.5622   5.0727   5.6892   5.7777   5.8839
     6.0692   6.1981   6.2914   6.3590   6.4258   7.0951   7.7952   8.0245
    22.9602  23.1010  23.2827  23.4404  23.4966  23.5958  23.6766  23.8682
    23.9754  24.0919  24.3357  25.2794  26.5977  26.9178  27.2377  27.8069
    27.9660  28.2313  28.4562  28.5825  28.9989  29.3223  29.4770  29.8289
    30.5661  30.7914  31.3031  31.5779  31.8830  32.4078  32.6800  32.8168
    34.0172  34.6503  35.1585  35.4633  35.6638  35.7841  35.9934  37.1912
    37.4466

          k = 0.1818 0.1515 0.3895 (  2655 PWs)   bands (ev):

   -44.4518 -44.4478 -16.7243 -16.6219 -16.1795 -15.9210 -15.5260 -15.4842
   -12.8184 -12.8054 -12.8009 -12.7759 -12.7140 -12.7038   2.3789   2.5357
     4.0914   4.3686   4.5120   4.8341   4.9799   5.5393   5.5699   5.6836
     5.8898   5.9893   6.3438   6.3714   6.4041   6.4358   7.7915   8.0173
    22.7164  22.7491  23.1688  23.3106  23.5346  23.6324  23.6975  23.7761
    23.9972  24.1225  24.7817  25.2625  27.0453  27.1153  27.2246  27.6842
    28.1803  28.6103  28.7917  28.9665  29.3951  29.6311  29.9940  30.1703
    30.3988  30.7643  30.9597  31.4808  32.0848  32.2619  32.4984  32.7923
    33.7760  34.7446  34.9060  35.1151  35.1817  35.5772  35.8412  36.3527
    37.4466

          k = 0.1818 0.3030 0.0000 (  2656 PWs)   bands (ev):

   -44.4597 -44.4441 -16.8364 -16.5943 -16.3035 -15.7409 -15.5226 -15.3892
   -12.8215 -12.8076 -12.7953 -12.7919 -12.7494 -12.7024   2.0246   2.5233
     3.4632   4.2487   4.3789   4.6441   5.3192   5.4175   5.7950   5.8333
     6.1835   6.1878   6.2170   6.4221   6.4584   6.6655   7.7946   8.5887
    22.7212  23.0798  23.1012  23.3546  23.6002  23.6955  23.7653  23.9250
    24.1329  24.3651  24.5696  25.2140  26.1715  26.6663  26.9304  27.2129
    27.7517  28.4723  28.5615  28.6994  29.2184  29.3856  29.9654  30.0904
    30.3039  30.4462  30.6370  31.7548  31.7649  32.3612  32.9116  33.4553
    33.7104  34.5456  35.2989  35.6110  36.1134  36.1318  36.4964  36.8270
    37.5017

[...]
    -2.8677  -2.1440  -2.0897  -2.0299  -1.9075  -1.5365  -1.5082  -1.4280
    -1.3293  -1.2968  -1.2109  -1.1704  -1.1396  -0.9524  -0.7097  -0.3258
    17.4077  17.4190  17.6036  17.6501  17.7662  17.8169  17.8801  17.9473
    18.0496  18.1351  18.7655  19.0558  20.6832  20.8807  21.2452  21.3215
    21.4297  21.6192  21.9174  22.1943  22.2731  22.5290  22.6063  22.7287
    23.3774  23.6699  23.7452  24.0845  24.3994  24.5545  24.9536  25.0546
    26.2839  26.4015  26.8388  27.0077  27.1990  27.2185  27.2640  28.1288
    28.2637

          k = 0.1682 0.2803 0.3604 (  4469 PWs)   bands (ev):

   -51.0086 -51.0081 -23.5310 -23.4452 -23.3271 -23.2012 -23.1067 -23.0111
   -19.3635 -19.3606 -19.3575 -19.3569 -19.3520 -19.3508  -3.4139  -2.9153
    -2.4442  -2.0984  -2.0812  -1.9959  -1.8691  -1.6089  -1.5772  -1.5594
    -1.4184  -1.3541  -1.2542  -1.1752  -1.1642  -1.1365  -0.9431  -0.3267
    17.2874  17.3236  17.4945  17.6475  17.7538  17.8484  17.8797  17.9540
    17.9652  18.1476  19.0846  19.2817  20.6098  21.0543  21.1492  21.3178
    21.6453  21.8982  22.1761  22.2070  22.5700  22.5934  22.9995  23.2180
    23.3681  23.5029  23.7416  24.1571  24.2979  24.7570  25.0401  25.2386
    25.8651  26.1857  26.4435  26.7257  26.8093  27.1513  27.3703  27.4997
    27.7504

          k = 0.1682-0.4205 0.0000 (  4454 PWs)   bands (ev):

   -51.0061 -51.0060 -23.5877 -23.5378 -23.2591 -23.2558 -23.0097 -22.9476
   -19.3613 -19.3589 -19.3571 -19.3537 -19.3485 -19.3472  -3.7163  -3.4135
    -2.2553  -2.2311  -1.9700  -1.9511  -1.8994  -1.7813  -1.6469  -1.4938
    -1.4929  -1.2879  -1.2196  -1.1896  -1.1443  -1.1161  -0.3261   0.0988
    17.2525  17.3662  17.3998  17.6529  17.9093  17.9740  17.9760  18.1047
    18.1988  18.3486  18.7544  18.8651  20.3411  20.5044  20.5618  20.9222
    21.1101  21.2700  21.8213  22.0448  22.6008  22.8823  22.9367  22.9728
    23.0797  23.3722  23.7155  24.1688  24.4925  25.0140  25.3923  25.4365
    25.6216  25.7677  26.6905  27.0965  27.2488  27.6096  28.0025  28.3367
    28.5365

          k = 0.1682-0.4205 0.1201 (  4458 PWs)   bands (ev):

   -51.0066 -51.0065 -23.5595 -23.5353 -23.2603 -23.2588 -23.0101 -22.9804
   -19.3626 -19.3614 -19.3557 -19.3541 -19.3484 -19.3479  -3.5607  -3.4138
    -2.2326  -2.2204  -1.9633  -1.9539  -1.8904  -1.8452  -1.5939  -1.5607
    -1.4110  -1.3554  -1.1878  -1.1733  -1.1590  -1.1458  -0.3255  -0.1250
    17.2836  17.3060  17.5476  17.6398  17.8698  17.9171  17.9745  18.0472
    18.1042  18.2031  18.8578  18.9011  20.6657  20.6958  20.8475  21.0008
    21.0796  21.2853  21.9632  22.0753  22.4919  22.6889  23.0352  23.0879
    23.2393  23.4202  23.7775  24.0697  24.7075  24.9245  25.0772  25.0953
    25.7666  25.8157  26.8733  27.0815  27.1246  27.2689  27.7662  27.7699
    28.6386

          k = 0.1682-0.4205 0.2403 (  4460 PWs)   bands (ev):

   -51.0072 -51.0072 -23.5295 -23.4803 -23.2656 -23.2632 -23.0695 -23.0109
   -19.3574 -19.3568 -19.3555 -19.3547 -19.3519 -19.3514  -3.4132  -3.1153
    -2.2056  -2.1752  -1.9913  -1.9669  -1.8947  -1.8297  -1.5878  -1.5869
    -1.4071  -1.3683  -1.2326  -1.1747  -1.1647  -1.1413  -0.7102  -0.3267
    17.2921  17.3006  17.5467  17.6865  17.7190  17.8531  17.9030  17.9388
    18.0091  18.1369  19.0979  19.1384  20.7012  21.0453  21.1356  21.1937
    21.5128  21.9269  22.0729  22.1781  22.3105  22.4795  23.1483  23.2071
    23.3811  23.4784  23.8273  24.1812  24.6522  24.8859  24.9977  25.1222
    25.6571  25.6878  26.6616  26.7423  26.9474  27.2910  27.2968  27.4891
    28.0583

          k = 0.1682-0.4205 0.3604 (  4474 PWs)   bands (ev):

   -51.0092 -51.0091 -23.5247 -23.3723 -23.2713 -23.2679 -23.1832 -23.0116
   -19.3644 -19.3623 -19.3596 -19.3594 -19.3512 -19.3485  -3.4131  -2.4639
    -2.2017  -2.1087  -2.0537  -1.9806  -1.9114  -1.7227  -1.6793  -1.6065
    -1.5323  -1.3828  -1.3115  -1.3002  -1.1565  -1.1533  -1.1315  -0.3274
    17.2235  17.2902  17.3321  17.7236  17.7377  17.8253  17.8776  17.9466
    17.9588  18.1722  19.4288  19.4447  20.4123  20.9812  21.0810  21.3857
    21.5825  22.3909  22.4644  22.5661  22.5716  22.9215  23.0062  23.1866
    23.2985  23.4167  23.8554  23.9934  24.8095  25.1245  25.4266  25.5164
    25.5727  25.6080  26.2401  26.4807  26.5237  26.8602  26.9297  27.5157
    27.6581

          k = 0.3364 0.0000 0.0000 (  4440 PWs)   bands (ev):

   -51.0074 -51.0007 -23.6217 -23.5627 -23.3382 -23.1638 -22.9483 -22.9483
   -19.3636 -19.3636 -19.3516 -19.3516 -19.3469 -19.3306  -3.7422  -3.6898
    -2.5140  -2.2815  -2.2815  -1.9575  -1.6925  -1.5647  -1.5647  -1.3638
    -1.3619  -1.2635  -1.2421  -1.2421  -1.1427  -1.1427   0.1011   0.1011
    17.2089  17.5122  17.5717  17.5717  17.9253  18.0147  18.1046  18.2090
    18.3520  18.3520  18.6081  18.6428  20.1133  20.1133  20.2018  20.6521
    20.6623  21.5981  21.5981  21.6255  22.3256  22.7743  22.9891  22.9891
    23.2432  23.4677  23.6831  24.0109  24.0109  24.2328  26.0497  26.0969
    26.0969  26.3188  26.4158  26.9759  27.7683  27.7684  28.7225  28.7227
    29.1588

          k = 0.3364 0.0000 0.1201 (  4466 PWs)   bands (ev):

   -51.0080 -51.0069 -23.6088 -23.5462 -23.3407 -23.1654 -22.9804 -22.9480
   -19.3665 -19.3652 -19.3624 -19.3583 -19.3550 -19.3416  -3.7205  -3.5570
    -2.5335  -2.2578  -2.2290  -1.9697  -1.7291  -1.6173  -1.5158  -1.4175
    -1.3762  -1.2652  -1.2611  -1.1680  -1.1638  -1.1376  -0.1252   0.0988
    17.2392  17.4588  17.5121  17.6572  17.9074  17.9883  18.0298  18.1877
    18.2044  18.3466  18.6398  18.7227  20.1618  20.2598  20.5304  20.6883
    20.9672  21.4445  21.6817  21.8113  22.4250  22.7677  22.9648  23.0457
    23.2397  23.3229  23.7020  23.8751  23.9857  24.6531  25.6205  25.7989
    25.9713  26.4163  26.8651  26.9577  27.5120  27.8064  28.1812  28.3763
    28.9860

          k = 0.3364 0.0000 0.2403 (  4466 PWs)   bands (ev):

   -51.0096 -51.0058 -23.5912 -23.4847 -23.3431 -23.1711 -23.0663 -22.9474
   -19.3667 -19.3624 -19.3612 -19.3558 -19.3501 -19.3481  -3.7173  -3.1185
    -2.5580  -2.1945  -2.1162  -2.0050  -1.7465  -1.6905  -1.5580  -1.4697
    -1.4015  -1.3032  -1.2140  -1.1803  -1.1264  -1.1015  -0.7131   0.0985
    17.2454  17.3320  17.4137  17.6547  17.8006  17.8996  18.0007  18.0578
    18.2473  18.3427  18.8239  18.9826  20.1808  20.4956  20.6688  21.1165
    21.3858  21.7211  22.1058  22.2403  22.3941  22.6763  22.9557  22.9695
    23.0616  23.2111  23.6721  23.7621  24.7601  24.9871  25.2719  25.3932
    25.7324  26.4081  26.5821  27.1497  27.2154  27.5662  27.6422  28.0102
    28.0326

          k = 0.3364 0.0000 0.3604 (  4464 PWs)   bands (ev):

   -51.0080 -51.0073 -23.5825 -23.4126 -23.3127 -23.2121 -23.1483 -22.9468
   -19.3671 -19.3614 -19.3582 -19.3561 -19.3517 -19.3428  -3.7162  -2.6201
    -2.4227  -2.1266  -2.0297  -2.0166  -1.7316  -1.7276  -1.6741  -1.5988
    -1.5027  -1.3429  -1.2883  -1.2313  -1.1264  -1.1125  -1.0766   0.0986
    17.1651  17.1991  17.2556  17.6802  17.7609  17.8465  18.0670  18.0767
    18.2578  18.3691  19.1213  19.2324  20.0263  20.2863  21.1140  21.1699
    21.4638  22.1419  22.2249  22.5263  22.6999  22.8808  22.9209  22.9868
    23.1264  23.1482  23.7307  24.1208  25.0316  25.1668  25.3216  25.4842
    25.6646  25.8133  26.1191  26.6395  26.9001  27.1764  27.2245  27.9098
    27.9719

          k = 0.3364 0.1402 0.0000 (  4456 PWs)   bands (ev):

   -51.0070 -51.0054 -23.6054 -23.5393 -23.3414 -23.1660 -22.9915 -22.9479
   -19.3643 -19.3619 -19.3578 -19.3552 -19.3516 -19.3411  -3.7195  -3.5019
    -2.5383  -2.2495  -2.2117  -1.9738  -1.7350  -1.6299  -1.5036  -1.4394
    -1.3796  -1.2665  -1.2499  -1.1748  -1.1522  -1.1344  -0.2013   0.0989
    17.2455  17.4534  17.4895  17.6692  17.8969  17.9811  18.0051  18.1483
    18.2102  18.3451  18.6546  18.7579  20.1802  20.3118  20.5666  20.7522
    21.0656  21.4261  21.6963  21.8785  22.4592  22.7441  22.9596  23.0381
    23.2377  23.2405  23.7136  23.9636  23.9873  24.7095  25.5443  25.7783
    25.8667  26.4560  26.8283  27.0709  27.4381  27.7701  28.0883  28.2549
    28.9168

          k = 0.3364 0.1402 0.1201 (  4447 PWs)   bands (ev):

   -51.0056 -51.0046 -23.5853 -23.5289 -23.3443 -23.1674 -22.9919 -22.9802
   -19.3607 -19.3566 -19.3534 -19.3523 -19.3467 -19.3445  -3.5698  -3.4949
    -2.5517  -2.2058  -2.1860  -1.9732  -1.8161  -1.5619  -1.5436  -1.4001
    -1.3898  -1.3485  -1.1851  -1.1746  -1.1558  -1.1507  -0.2019  -0.1239
    17.2863  17.3940  17.5841  17.6740  17.8614  17.9313  17.9699  18.1043
    18.1419  18.2058  18.6975  18.8364  20.3350  20.6235  20.7805  20.9712
    21.0932  21.4545  21.6744  21.9228  22.5307  22.6466  22.8217  23.1553
    23.2582  23.5292  23.7259  23.7649  24.1349  24.7554  25.2005  25.4109
    26.1167  26.6994  26.7360  26.9349  27.3272  27.5295  27.7347  28.0286
    28.7688

          k = 0.3364 0.1402 0.2403 (  4463 PWs)   bands (ev):

   -51.0074 -51.0074 -23.5554 -23.4766 -23.3482 -23.1720 -23.0683 -22.9919
   -19.3636 -19.3613 -19.3560 -19.3524 -19.3518 -19.3505  -3.5058  -3.1163
    -2.5709  -2.1381  -2.1064  -1.9925  -1.8750  -1.5812  -1.5556  -1.4490
    -1.4078  -1.3359  -1.2186  -1.1687  -1.1549  -1.1286  -0.7104  -0.2030
    17.3196  17.3321  17.5382  17.6534  17.7796  17.8718  17.8989  17.9992
    18.0376  18.1863  18.8786  19.1070  20.5384  20.9087  21.0118  21.2335
    21.4621  21.7614  21.9587  22.1942  22.3541  22.6356  22.8737  23.1729
    23.2337  23.4919  23.7546  23.9243  24.4636  24.7413  24.9578  25.1875
    26.0037  26.5095  26.5571  26.9265  26.9735  27.3013  27.3396  27.8650
    28.0616

          k = 0.3364 0.1402 0.3604 (  4471 PWs)   bands (ev):

   -51.0088 -51.0084 -23.5436 -23.4048 -23.3181 -23.2112 -23.1543 -22.9923
   -19.3655 -19.3607 -19.3596 -19.3565 -19.3534 -19.3480  -3.5045  -2.6146
    -2.4368  -2.0711  -2.0566  -2.0374  -1.8205  -1.6547  -1.6253  -1.5696
    -1.4735  -1.3626  -1.2864  -1.2381  -1.1491  -1.1408  -1.1135  -0.2030
    17.2209  17.2813  17.3561  17.6749  17.7695  17.8385  17.9622  17.9749
    17.9893  18.2202  19.2044  19.3527  20.3894  20.8637  21.0396  21.3282
    21.5666  22.2240  22.2423  22.4248  22.7060  22.9461  22.9750  23.1204
    23.2702  23.3940  23.6800  24.1487  24.3083  24.9822  25.2991  25.4575
    25.7240  26.1374  26.3355  26.5573  26.7437  26.9157  27.0854  27.5854
    27.7975

          k = 0.3364 0.2803 0.0000 (  4467 PWs)   bands (ev):

   -51.0089 -51.0070 -23.5873 -23.4570 -23.3403 -23.1758 -23.1009 -22.9471
   -19.3654 -19.3612 -19.3605 -19.3548 -19.3521 -19.3506  -3.7165  -2.9230
    -2.5588  -2.1693  -2.0790  -2.0178  -1.7422  -1.7081  -1.6032  -1.4750
    -1.4132  -1.3181  -1.2292  -1.1563  -1.1200  -1.0899  -0.9491   0.0978
    17.2316  17.2647  17.3631  17.6445  17.7859  17.8742  18.0277  18.0567
    18.2555  18.3493  18.9220  19.0816  20.1407  20.4165  20.8428  21.1201
    21.5294  21.8198  22.2382  22.3662  22.5037  22.7711  22.9178  22.9677
    23.1578  23.1903  23.4809  23.7699  25.0454  25.1785  25.2146  25.2462
    25.7131  26.1632  26.5265  27.0675  27.1037  27.3620  27.5648  27.7802
    28.0170

          k = 0.3364 0.2803 0.1201 (  4466 PWs)   bands (ev):

   -51.0092 -51.0064 -23.5596 -23.4512 -23.3447 -23.1758 -23.1034 -22.9804
   -19.3691 -19.3617 -19.3570 -19.3526 -19.3511 -19.3480  -3.5606  -2.9201
    -2.5696  -2.1255  -2.0801  -2.0150  -1.8476  -1.6053  -1.5918  -1.4633
    -1.4116  -1.3358  -1.2333  -1.1607  -1.1450  -1.1146  -0.9452  -0.1252
    17.2814  17.2937  17.4495  17.6416  17.7832  17.8671  17.9498  17.9962
    18.0602  18.2346  18.9618  19.1767  20.4356  20.7939  20.9553  21.2339
    21.5914  21.8409  22.1879  22.2047  22.6499  22.7124  22.9057  23.1141
    23.2217  23.3232  23.6216  23.8643  24.6325  24.8802  25.0482  25.2743
    25.8684  26.3748  26.5152  26.8558  26.9471  27.2443  27.5200  27.5532
    27.9196

          k = 0.3364 0.2803 0.2403 (  4467 PWs)   bands (ev):

   -51.0090 -51.0074 -23.4865 -23.4313 -23.3554 -23.1760 -23.1101 -23.0708
   -19.3635 -19.3611 -19.3557 -19.3525 -19.3520 -19.3490  -3.1165  -2.9136
    -2.5845  -2.1099  -2.0704  -1.9651  -1.8959  -1.5843  -1.5057  -1.4724
    -1.4319  -1.3329  -1.2497  -1.1997  -1.1756  -1.1667  -0.9405  -0.7090
    17.3593  17.4114  17.5946  17.6116  17.7057  17.7510  17.7816  17.8785
    17.9403  18.0130  19.1683  19.4438  20.8951  21.0706  21.5731  21.6428
    21.7487  21.9021  22.1586  22.2057  22.3325  22.5478  22.9064  23.1785
    23.6091  23.7599  23.9852  24.1262  24.2068  24.4987  24.8834  25.0128
    26.1522  26.2951  26.5333  26.5650  26.7493  27.0182  27.0527  27.5710
    27.8254

          k = 0.3364 0.2803 0.3604 (  4466 PWs)   bands (ev):

   -51.0091 -51.0073 -23.4376 -23.3828 -23.3325 -23.2077 -23.1688 -23.1128
   -19.3610 -19.3567 -19.3540 -19.3533 -19.3526 -19.3480  -2.9116  -2.6010
    -2.4496  -2.1199  -2.1165  -1.9177  -1.8250  -1.6296  -1.5830  -1.4849
    -1.4439  -1.3675  -1.2901  -1.2577  -1.2148  -1.2093  -1.1951  -0.9405
    17.3744  17.4372  17.5556  17.5962  17.6681  17.7346  17.7607  17.8162
    17.8592  17.9280  19.5439  19.7171  20.9364  21.0462  21.6166  21.6463
    21.8611  22.0111  22.2092  22.3639  22.5398  22.9014  23.0470  23.2324
    23.5750  23.7190  24.1417  24.3297  24.3439  24.8714  24.9858  25.0454
    25.9732  26.2678  26.4463  26.5216  26.6092  26.8485  26.9147  26.9776
    27.5882

          k = 0.3364-0.4205 0.0000 (  4466 PWs)   bands (ev):

   -51.0080 -51.0079 -23.5814 -23.4031 -23.2684 -23.2627 -23.1543 -22.9468
   -19.3669 -19.3634 -19.3594 -19.3590 -19.3478 -19.3440  -3.7153  -2.6031
    -2.2231  -2.1141  -2.0144  -1.9447  -1.8869  -1.7281  -1.7211  -1.6970
    -1.5139  -1.3494  -1.3108  -1.2394  -1.1196  -1.1096  -1.0742   0.0975
    17.1405  17.1866  17.2287  17.7196  17.7297  17.8408  18.0740  18.0871
    18.2571  18.3757  19.2058  19.2513  19.9822  20.2565  21.0864  21.2768
    21.4574  22.1248  22.3196  22.5541  22.6682  22.9042  22.9530  23.0260
    23.0664  23.1139  23.7393  24.9339  24.9749  25.1291  25.1608  25.3550
    25.5075  25.6513  26.0105  26.5660  26.8680  27.1591  27.2358  27.9119
    27.9432

          k = 0.3364-0.4205 0.1201 (  4472 PWs)   bands (ev):

   -51.0087 -51.0087 -23.5524 -23.3981 -23.2696 -23.2647 -23.1584 -22.9805
   -19.3649 -19.3624 -19.3614 -19.3613 -19.3494 -19.3464  -3.5598  -2.6033
    -2.2115  -2.1162  -2.0262  -1.9426  -1.9289  -1.7485  -1.6760  -1.6378
    -1.4847  -1.3661  -1.3036  -1.2462  -1.1407  -1.1302  -1.1026  -0.1270
    17.1875  17.2440  17.3054  17.7218  17.7297  17.8440  17.9952  18.0150
    18.0266  18.2637  19.2841  19.3208  20.2641  20.6930  21.0496  21.3083
    21.5379  22.2521  22.3187  22.6567  22.6622  22.9103  23.0015  23.0381
    23.1881  23.2627  23.7146  24.2876  24.7970  25.0583  25.3321  25.5071
    25.5468  25.6835  26.2718  26.5552  26.6844  26.9866  27.0934  27.6790
    27.7653

          k = 0.3364-0.4205 0.2403 (  4478 PWs)   bands (ev):

   -51.0097 -51.0096 -23.4703 -23.3857 -23.2721 -23.2697 -23.1679 -23.0733
   -19.3652 -19.3641 -19.3605 -19.3603 -19.3496 -19.3481  -3.1135  -2.5996
    -2.1853  -2.1369  -2.0629  -2.0293  -1.8470  -1.7355  -1.6106  -1.5509
    -1.4297  -1.3991  -1.2922  -1.2669  -1.1947  -1.1890  -1.1783  -0.7097
    17.3203  17.3781  17.4801  17.6562  17.6790  17.7786  17.8231  17.8260
    17.8819  18.0008  19.5591  19.5707  20.7483  21.0160  21.5027  21.6981
    21.8475  22.1082  22.1087  22.4267  22.4495  22.9332  23.0963  23.2299
    23.5028  23.7541  23.8822  24.0493  24.7148  25.0972  25.2336  25.2386
    25.5702  25.6833  26.4099  26.6728  26.7415  26.7782  26.8454  27.2721
    27.2845

          k = 0.3364-0.4205 0.3604 (  4482 PWs)   bands (ev):

   -51.0098 -51.0098 -23.3744 -23.3504 -23.2747 -23.2743 -23.2016 -23.1760
   -19.3641 -19.3639 -19.3569 -19.3567 -19.3518 -19.3517  -2.5949  -2.4534
    -2.1702  -2.1619  -2.0825  -2.0776  -1.8208  -1.7579  -1.5415  -1.5128
    -1.4297  -1.4160  -1.3130  -1.3005  -1.2795  -1.2635  -1.2600  -1.2320
    17.4568  17.4775  17.5754  17.5848  17.6523  17.6844  17.7399  17.7486
    17.7896  17.8042  19.9601  19.9610  21.0520  21.0770  21.5489  21.5850
    21.6474  21.6670  22.4890  22.5278  22.8410  22.8689  23.1190  23.1255
    23.7449  24.0287  24.5145  24.6544  24.7710  24.9216  25.1456  25.1741
    25.6910  25.7125  26.3960  26.5289  26.6570  26.6739  26.7839  26.9148
    27.2679

     the Fermi energy is    24.6836 ev

!    total energy              =   -1121.18296132 Ry
     Harris-Foulkes estimate   =   -1121.18296150 Ry
     estimated scf accuracy    <       0.00000021 Ry

     The total energy is the sum of the following terms:

     one-electron contribution =     -52.30009938 Ry
     hartree contribution      =     122.24111492 Ry
     xc contribution           =    -123.31930932 Ry
     ewald contribution        =   -1067.39418518 Ry
     smearing contrib. (-TS)   =      -0.41048235 Ry

     convergence has been achieved in  12 iterations

     Forces acting on atoms (Ry/au):

     atom    1 type  1   force =     0.00000000    0.00000000    0.00000000
     atom    2 type  1   force =     0.00000000    0.00000000    0.00000000
     atom    3 type  1   force =     0.00000000    0.00000000    0.00000000
     atom    4 type  1   force =     0.00000000    0.00000000    0.00000000
     atom    5 type  1   force =     0.00000000    0.00000000    0.00000000
     atom    6 type  1   force =     0.00000000    0.00000000    0.00000000
     atom    7 type  2   force =     0.00000000    0.00000000    0.00000000
     atom    8 type  2   force =     0.00000000    0.00000000    0.00000000

     Total force =     0.000000     Total SCF correction =     0.000000


     entering subroutine stress ...

          total   stress  (Ry/bohr**3)                   (kbar)     P=  143.15
   0.00097310   0.00000000   0.00000000        143.15      0.00      0.00
   0.00000000   0.00097310   0.00000000          0.00    143.15      0.00
   0.00000000   0.00000000   0.00097310          0.00      0.00    143.15


     Writing output data file Prototype-La-cP8-Cr3Si.save
 
     init_run     :      5.94s CPU      8.01s WALL (       2 calls)
     electrons    :   1067.83s CPU   1279.12s WALL (       5 calls)
     update_pot   :      1.20s CPU      1.23s WALL (       3 calls)
     forces       :      4.55s CPU      4.98s WALL (       5 calls)
     stress       :     11.14s CPU     11.58s WALL (       5 calls)

     Called by init_run:
     wfcinit      :      5.42s CPU      7.48s WALL (       2 calls)
     potinit      :      0.24s CPU      0.25s WALL (       2 calls)

     Called by electrons:
     c_bands      :   1029.52s CPU   1228.20s WALL (      48 calls)
     sum_band     :     38.04s CPU     47.06s WALL (      48 calls)
     v_of_rho     :      0.06s CPU      0.07s WALL (      53 calls)
     mix_rho      :      0.06s CPU      0.06s WALL (      48 calls)

     Called by c_bands:
     init_us_2    :      2.39s CPU      3.18s WALL (    5184 calls)
     ccgdiagg     :    919.92s CPU   1080.88s WALL (    2536 calls)
     wfcrot       :    112.22s CPU    148.33s WALL (    2584 calls)

     Called by *cgdiagg:
     h_psi        :    728.27s CPU    902.21s WALL (  909263 calls)
     cdiaghg      :      5.02s CPU      5.45s WALL (    2584 calls)

     Called by h_psi:
     add_vuspsi   :     76.70s CPU    102.61s WALL (  909263 calls)

     General routines
     calbec       :    256.21s CPU    259.41s WALL ( 1816422 calls)
     fft          :      0.08s CPU      0.09s WALL (     235 calls)
     fftw         :    497.11s CPU    615.76s WALL ( 2358814 calls)
     davcio       :      2.04s CPU      5.69s WALL (    7488 calls)
 
     Parallel routines
     fft_scatter  :    227.88s CPU    268.54s WALL ( 2359049 calls)
 
     PWSCF        : 18m11.30s CPU    21m50.61s WALL

 
   This run was terminated on:  17:56:49  22Mar2018            

=------------------------------------------------------------------------------=
   JOB DONE.
=------------------------------------------------------------------------------=
