
     Program PWSCF v.5.0.2 starts on 22Mar2018 at 21:15:13 

     This program is part of the open-source Quantum ESPRESSO suite
     for quantum simulation of materials; please cite
         "P. Giannozzi et al., J. Phys.:Condens. Matter 21 395502 (2009);
          URL http://www.quantum-espresso.org", 
     in publications or presentations arising from this work. More details at
     http://www.quantum-espresso.org/quote.php

     Parallel version (MPI), running on     4 processors
     R & G space division:  proc/nbgrp/npool/nimage =       4

     Current dimensions of program PWSCF are:
     Max number of different atomic species (ntypx) = 10
     Max number of k-points (npk) =  40000
     Max angular momentum in pseudopotentials (lmaxx) =  3
     Waiting for input...
     Reading input from standard input

     Subspace diagonalization in iterative solution of the eigenvalue problem:
     a serial algorithm will be used

 
     Parallelization info
     --------------------
     sticks:   dense  smooth     PW     G-vecs:    dense   smooth      PW
     Min         233     233     69                 5311     5311     851
     Max         234     234     70                 5314     5314     854
     Sum         933     933    277                21247    21247    3407
 


     bravais-lattice index     =            0
     lattice parameter (alat)  =       8.5346  a.u.
     unit-cell volume          =     621.6493 (a.u.)^3
     number of atoms/cell      =            8
     number of atomic types    =            2
     number of electrons       =       134.00
     number of Kohn-Sham states=           80
     kinetic-energy cutoff     =      40.0000  Ry
     charge density cutoff     =     160.0000  Ry
     convergence threshold     =      1.0E-04
     mixing beta               =       0.7000
     number of iterations used =            8  plain     mixing
     Exchange-correlation      = SLA-PZ-NOGX-NOGC ( 1 1 0 0 0)
     EXX-fraction              =        0.00
     nstep                     =           50


     celldm(1)=   8.534573  celldm(2)=   0.000000  celldm(3)=   0.000000
     celldm(4)=   0.000000  celldm(5)=   0.000000  celldm(6)=   0.000000

     crystal axes: (cart. coord. in units of alat)
               a(1) = (   1.000000   0.000000   0.000000 )  
               a(2) = (   0.000000   1.000000   0.000000 )  
               a(3) = (   0.000000   0.000000   1.000000 )  

     reciprocal axes: (cart. coord. in units 2 pi/alat)
               b(1) = (  1.000000  0.000000  0.000000 )  
               b(2) = (  0.000000  1.000000  0.000000 )  
               b(3) = (  0.000000  0.000000  1.000000 )  


     PseudoPot. # 1 for Eu read from file:
     /home/cwx6513/pp.La/Eu.UPF
     MD5 check sum: 5efdbbfc50c6a10138933a6429836ad2
     Pseudo is Norm-conserving, Zval = 17.0
     Generated in analytical, separable form
     Using radial grid of 1261 points,  6 beta functions with: 
                l(1) =   0
                l(2) =   0
                l(3) =   1
                l(4) =   1
                l(5) =   2
                l(6) =   3

     PseudoPot. # 2 for Sm read from file:
     /home/cwx6513/pp.La/Sm.UPF
     MD5 check sum: 5079e8b144a06bfcdbc14fb02b96ab09
     Pseudo is Norm-conserving, Zval = 16.0
     Generated in analytical, separable form
     Using radial grid of 1259 points,  6 beta functions with: 
                l(1) =   0
                l(2) =   0
                l(3) =   1
                l(4) =   1
                l(5) =   2
                l(6) =   3

     atomic species   valence    mass     pseudopotential
        Cr            17.00    51.99610     Eu( 1.00)
        Si            16.00    28.08550     Sm( 1.00)

     48 Sym. Ops., with inversion, found (24 have fractional translation)



   Cartesian axes

     site n.     atom                  positions (alat units)
         1           Cr  tau(   1) = (   0.0000000   0.5000000   0.2500000  )
         2           Cr  tau(   2) = (   0.0000000   0.5000000   0.7500000  )
         3           Cr  tau(   3) = (   0.5000000   0.7500000   0.0000000  )
         4           Cr  tau(   4) = (   0.5000000   0.2500000   0.0000000  )
         5           Cr  tau(   5) = (   0.7500000   0.0000000   0.5000000  )
         6           Cr  tau(   6) = (   0.2500000   0.0000000   0.5000000  )
         7           Si  tau(   7) = (   0.5000000   0.5000000   0.5000000  )
         8           Si  tau(   8) = (   0.0000000   0.0000000   0.0000000  )

     number of k points=    48  gaussian smearing, width (Ry)=  0.1000
                       cart. coord. in units 2pi/alat
        k(    1) = (   0.0000000   0.0000000   0.0000000), wk =   0.0095238
        k(    2) = (   0.0000000   0.0000000   0.1428571), wk =   0.0190476
        k(    3) = (   0.0000000   0.0000000   0.2857143), wk =   0.0190476
        k(    4) = (   0.0000000   0.0000000   0.4285714), wk =   0.0190476
        k(    5) = (   0.0000000   0.1666667   0.0000000), wk =   0.0190476
        k(    6) = (   0.0000000   0.1666667   0.1428571), wk =   0.0380952
        k(    7) = (   0.0000000   0.1666667   0.2857143), wk =   0.0380952
        k(    8) = (   0.0000000   0.1666667   0.4285714), wk =   0.0380952
        k(    9) = (   0.0000000   0.3333333   0.0000000), wk =   0.0190476
        k(   10) = (   0.0000000   0.3333333   0.1428571), wk =   0.0380952
        k(   11) = (   0.0000000   0.3333333   0.2857143), wk =   0.0380952
        k(   12) = (   0.0000000   0.3333333   0.4285714), wk =   0.0380952
        k(   13) = (   0.0000000  -0.5000000   0.0000000), wk =   0.0095238
        k(   14) = (   0.0000000  -0.5000000   0.1428571), wk =   0.0190476
        k(   15) = (   0.0000000  -0.5000000   0.2857143), wk =   0.0190476
        k(   16) = (   0.0000000  -0.5000000   0.4285714), wk =   0.0190476
        k(   17) = (   0.2000000   0.0000000   0.0000000), wk =   0.0190476
        k(   18) = (   0.2000000   0.0000000   0.1428571), wk =   0.0380952
        k(   19) = (   0.2000000   0.0000000   0.2857143), wk =   0.0380952
        k(   20) = (   0.2000000   0.0000000   0.4285714), wk =   0.0380952
        k(   21) = (   0.2000000   0.1666667   0.0000000), wk =   0.0380952
        k(   22) = (   0.2000000   0.1666667   0.1428571), wk =   0.0761905
        k(   23) = (   0.2000000   0.1666667   0.2857143), wk =   0.0761905
        k(   24) = (   0.2000000   0.1666667   0.4285714), wk =   0.0761905
        k(   25) = (   0.2000000   0.3333333   0.0000000), wk =   0.0380952
        k(   26) = (   0.2000000   0.3333333   0.1428571), wk =   0.0761905
        k(   27) = (   0.2000000   0.3333333   0.2857143), wk =   0.0761905
        k(   28) = (   0.2000000   0.3333333   0.4285714), wk =   0.0761905
        k(   29) = (   0.2000000  -0.5000000   0.0000000), wk =   0.0190476
        k(   30) = (   0.2000000  -0.5000000   0.1428571), wk =   0.0380952
        k(   31) = (   0.2000000  -0.5000000   0.2857143), wk =   0.0380952
        k(   32) = (   0.2000000  -0.5000000   0.4285714), wk =   0.0380952
        k(   33) = (   0.4000000   0.0000000   0.0000000), wk =   0.0190476
        k(   34) = (   0.4000000   0.0000000   0.1428571), wk =   0.0380952
        k(   35) = (   0.4000000   0.0000000   0.2857143), wk =   0.0380952
        k(   36) = (   0.4000000   0.0000000   0.4285714), wk =   0.0380952
        k(   37) = (   0.4000000   0.1666667   0.0000000), wk =   0.0380952
        k(   38) = (   0.4000000   0.1666667   0.1428571), wk =   0.0761905
        k(   39) = (   0.4000000   0.1666667   0.2857143), wk =   0.0761905
        k(   40) = (   0.4000000   0.1666667   0.4285714), wk =   0.0761905
        k(   41) = (   0.4000000   0.3333333   0.0000000), wk =   0.0380952
        k(   42) = (   0.4000000   0.3333333   0.1428571), wk =   0.0761905
        k(   43) = (   0.4000000   0.3333333   0.2857143), wk =   0.0761905
        k(   44) = (   0.4000000   0.3333333   0.4285714), wk =   0.0761905
        k(   45) = (   0.4000000  -0.5000000   0.0000000), wk =   0.0190476
        k(   46) = (   0.4000000  -0.5000000   0.1428571), wk =   0.0380952
        k(   47) = (   0.4000000  -0.5000000   0.2857143), wk =   0.0380952
        k(   48) = (   0.4000000  -0.5000000   0.4285714), wk =   0.0380952

     Dense  grid:    21247 G-vectors     FFT dimensions: (  36,  36,  36)

     Largest allocated arrays     est. size (Mb)     dimensions
        Kohn-Sham Wavefunctions         0.83 Mb     (    683,   80)
        NL pseudopotentials             1.67 Mb     (    683,  160)
        Each V/rho on FFT grid          0.18 Mb     (  11664)
        Each G-vector array             0.04 Mb     (   5314)
        G-vector shells                 0.04 Mb     (   5314)
     Largest temporary arrays     est. size (Mb)     dimensions
        Each subspace H/S matrix        0.10 Mb     (  80,  80)
        Each <psi_i|beta_j> matrix      0.20 Mb     (    160,   80)
        Arrays for rho mixing           1.42 Mb     (  11664,   8)

     Initial potential from superposition of free atoms

     Starting from uniform charge
     Starting wfc are    0 randomized atomic wfcs

     total cpu time spent up to now is        3.1 secs

     Self-consistent Calculation

     iteration #  1     ecut=    40.00 Ry     beta=0.70
     CG style diagonalization
     c_bands:  1 eigenvalues not converged
     c_bands:  1 eigenvalues not converged
     c_bands:  1 eigenvalues not converged
     c_bands:  1 eigenvalues not converged
     c_bands:  1 eigenvalues not converged
     ethr =  1.00E-02,  avg # of iterations = 10.7

     total cpu time spent up to now is       37.5 secs

     total energy              =   -1288.83484595 Ry
     Harris-Foulkes estimate   =   -1453.04815927 Ry
     estimated scf accuracy    <     222.21992413 Ry

     iteration #  2     ecut=    40.00 Ry     beta=0.70
     CG style diagonalization
     ethr =  1.00E-02,  avg # of iterations =  6.5

     total cpu time spent up to now is       58.1 secs

     total energy              =   -1330.30911197 Ry
     Harris-Foulkes estimate   =   -1363.48806366 Ry
     estimated scf accuracy    <      47.27820019 Ry

     iteration #  3     ecut=    40.00 Ry     beta=0.70
     CG style diagonalization
     ethr =  1.00E-02,  avg # of iterations =  5.0

     total cpu time spent up to now is       73.4 secs

     total energy              =   -1344.53166292 Ry
     Harris-Foulkes estimate   =   -1355.16685871 Ry
     estimated scf accuracy    <      22.42764155 Ry

     iteration #  4     ecut=    40.00 Ry     beta=0.70
     CG style diagonalization
     ethr =  1.00E-02,  avg # of iterations =  3.7

     total cpu time spent up to now is       84.4 secs

     total energy              =   -1348.57641944 Ry
     Harris-Foulkes estimate   =   -1348.64231274 Ry
     estimated scf accuracy    <       0.11289254 Ry

     iteration #  5     ecut=    40.00 Ry     beta=0.70
     CG style diagonalization
     c_bands:  1 eigenvalues not converged
     c_bands:  2 eigenvalues not converged
     c_bands:  1 eigenvalues not converged
     c_bands:  1 eigenvalues not converged
     c_bands:  1 eigenvalues not converged
     c_bands:  2 eigenvalues not converged
     c_bands:  1 eigenvalues not converged
     c_bands:  2 eigenvalues not converged
     c_bands:  2 eigenvalues not converged
     c_bands:  1 eigenvalues not converged
     c_bands:  2 eigenvalues not converged
     c_bands:  2 eigenvalues not converged
     c_bands:  1 eigenvalues not converged
     c_bands:  1 eigenvalues not converged
     c_bands:  3 eigenvalues not converged
     c_bands:  2 eigenvalues not converged
     c_bands:  3 eigenvalues not converged
     c_bands:  1 eigenvalues not converged
     c_bands:  1 eigenvalues not converged
     c_bands:  1 eigenvalues not converged
     c_bands:  1 eigenvalues not converged
     c_bands:  1 eigenvalues not converged
     c_bands:  1 eigenvalues not converged
     c_bands:  1 eigenvalues not converged
     c_bands:  2 eigenvalues not converged
     c_bands:  2 eigenvalues not converged
     c_bands:  2 eigenvalues not converged
     c_bands:  2 eigenvalues not converged
     c_bands:  1 eigenvalues not converged
     c_bands:  1 eigenvalues not converged
     c_bands:  1 eigenvalues not converged
     c_bands:  1 eigenvalues not converged
     c_bands:  1 eigenvalues not converged
     c_bands:  1 eigenvalues not converged
     c_bands:  1 eigenvalues not converged
     ethr =  8.42E-05,  avg # of iterations =  5.7

     total cpu time spent up to now is      102.1 secs

     total energy              =   -1348.75399970 Ry
     Harris-Foulkes estimate   =   -1348.82610268 Ry
     estimated scf accuracy    <       0.17244062 Ry

     iteration #  6     ecut=    40.00 Ry     beta=0.70
     CG style diagonalization
     ethr =  8.42E-05,  avg # of iterations =  3.5

     total cpu time spent up to now is      113.0 secs

     total energy              =   -1348.78286184 Ry
     Harris-Foulkes estimate   =   -1348.78309127 Ry
     estimated scf accuracy    <       0.00062176 Ry

     iteration #  7     ecut=    40.00 Ry     beta=0.70
     CG style diagonalization
     c_bands:  1 eigenvalues not converged
     c_bands:  1 eigenvalues not converged
     c_bands:  1 eigenvalues not converged
     c_bands:  2 eigenvalues not converged
     c_bands:  1 eigenvalues not converged
     c_bands:  1 eigenvalues not converged
     c_bands:  1 eigenvalues not converged
     c_bands:  1 eigenvalues not converged
     c_bands:  3 eigenvalues not converged
     c_bands:  1 eigenvalues not converged
     c_bands:  1 eigenvalues not converged
     c_bands:  2 eigenvalues not converged
     c_bands:  1 eigenvalues not converged
     c_bands:  1 eigenvalues not converged
     c_bands:  1 eigenvalues not converged
     c_bands:  1 eigenvalues not converged
     c_bands:  2 eigenvalues not converged
     c_bands:  1 eigenvalues not converged
     ethr =  4.64E-07,  avg # of iterations =  5.7

     total cpu time spent up to now is      130.8 secs

     End of self-consistent calculation

          k = 0.0000 0.0000 0.0000 (  2601 PWs)   bands (ev):

   -21.7256 -21.1194 -21.1194 -19.8698 -19.8698 -19.8698 -14.6025 -14.4118
     2.0402   2.0402   2.8283   4.1671   4.1671   4.1671   6.0814   6.0814
     6.0814   6.5498   6.5498   6.5498   7.2200   7.2200   7.2200   9.2366
     9.2366   9.2366  10.5594  10.5594  10.5594  10.6075  10.6075  10.6075
    32.0746  32.0746  32.0756  32.0756  32.0756  32.3912  33.8895  34.8990
    34.8990  34.8990  34.9096  35.7429  35.7429  35.9652  36.1896  36.1896
    36.1896  38.0713  38.0713  38.5533  38.5533  38.5533  40.7769  40.7769
    40.7769  41.5220  41.5220  41.5220  41.5858  41.5858  41.5858  42.7539
    42.7539  43.6801  43.6801  44.9393  44.9393  44.9393  47.8482  47.8482
    47.8482  50.7604  50.7605  50.7607  50.9081  50.9081  50.9082  51.0771

          k = 0.0000 0.0000 0.1429 (  2657 PWs)   bands (ev):

   -21.6856 -21.1424 -21.0756 -19.9550 -19.8752 -19.8752 -14.5987 -14.4291
     2.0132   2.1694   2.8905   4.1850   4.1850   4.3547   5.8608   5.8608
     6.1815   6.5570   6.7361   6.7361   7.1264   7.1264   7.1610   8.8055
     9.2443   9.2443  10.3911  10.4832  10.5950  10.5950  10.6265  10.6266
    31.5807  32.2499  32.2499  32.2566  32.3279  32.8411  33.9588  34.3602
    34.3602  34.8689  35.0882  35.2608  35.6657  36.1295  36.3465  36.5755
    36.5755  37.9164  37.9164  38.3514  38.5352  38.7551  40.0246  41.0781
    41.0781  41.1297  41.1297  41.2987  41.4289  42.2838  42.2838  42.8759
    43.1154  43.4391  44.1751  45.0863  45.0863  45.5399  46.9031  46.9031
    47.8272  49.8087  50.5479  51.2470  51.2471  51.7919  51.7919  52.1377

          k = 0.0000 0.0000 0.2857 (  2677 PWs)   bands (ev):

   -21.5802 -21.2078 -20.9448 -20.1663 -19.8757 -19.8757 -14.5855 -14.4683
     2.0115   2.2668   3.4686   4.2268   4.2268   4.8720   5.6079   5.6079
     6.2946   6.6441   6.8729   6.8729   7.0605   7.0887   7.0887   7.6570
     9.2781   9.2781   9.9516  10.2562  10.6715  10.6715  10.6737  10.6737
    31.1245  32.4786  32.5191  32.6938  32.6938  33.4368  33.5353  33.5353
    34.1429  34.6964  34.7835  35.2399  35.4052  36.6710  36.6710  36.7224
    37.5303  37.7928  37.7928  38.1400  39.3492  39.4927  39.8667  39.9571
    39.9571  41.1063  41.2317  41.2317  41.2582  42.3418  42.7119  42.8363
    43.3784  43.3784  45.2958  45.2958  46.1085  46.4260  46.7122  46.7122
    47.1249  47.7626  51.2277  51.2278  51.3302  51.8723  51.8725  52.2482

          k = 0.0000 0.0000 0.4286 (  2658 PWs)   bands (ev):

   -21.4417 -21.3087 -20.7263 -20.4476 -19.8744 -19.8744 -14.5576 -14.5155
     2.0624   2.1700   4.2585   4.2585   4.6414   5.4935   5.4935   5.5951
     5.9738   6.3302   6.7626   6.7626   6.7766   6.9260   7.2318   7.2318
     9.3109   9.3109   9.7497   9.9436  10.7182  10.7182  10.7244  10.7244
    31.2644  32.0806  32.6950  32.7350  32.9819  32.9819  33.1253  33.1253
    34.3883  34.6181  35.1042  35.1409  36.7766  36.7766  36.8727  36.9945
    37.3420  37.5639  37.5639  38.8339  39.3513  39.3513  40.1502  40.2424
    40.4555  40.7266  41.0578  41.3525  41.3525  41.8013  41.8286  43.7125
    43.8239  43.8239  44.2037  44.4201  44.4201  46.1777  47.1339  47.5683
    48.8012  48.8012  50.6311  50.6311  51.8770  51.8769  52.0354  52.7436

          k = 0.0000 0.1667 0.0000 (  2653 PWs)   bands (ev):

   -21.6712 -21.1497 -21.0597 -19.9824 -19.8752 -19.8752 -14.5972 -14.4341
     2.0112   2.2054   2.9369   4.1933   4.1933   4.4255   5.8135   5.8135
     6.2095   6.5680   6.7829   6.7829   7.1068   7.1068   7.1483   8.6611
     9.2520   9.2520  10.3226  10.4571  10.6073  10.6073  10.6333  10.6333
    31.4802  32.2885  32.3104  32.3104  32.3622  33.0428  33.9828  34.2215
    34.2215  34.8595  34.9320  35.2147  35.6331  36.2910  36.4284  36.6461
    36.6461  37.8136  37.8136  38.3544  38.7084  38.8285  39.9260  40.9634
    40.9634  41.1200  41.1200  41.2333  41.4009  42.4859  42.4859  42.8874
    42.9802  43.3501  44.5273  45.2284  45.2284  45.6902  46.6545  46.6545
    47.8207  49.4446  50.6036  51.3307  51.3307  51.9368  51.9367  52.4118

          k = 0.0000 0.1667 0.1429 (  2662 PWs)   bands (ev):

   -21.6325 -21.1314 -21.0554 -19.9847 -19.9527 -19.8753 -14.5951 -14.4488
     2.0700   2.3398   2.9598   4.2270   4.3663   4.4389   5.6610   5.8088
     6.2268   6.5923   6.8589   6.8881   6.9711   7.0489   7.2259   8.6508
     8.8188   9.2718  10.3156  10.4649  10.4782  10.5401  10.6403  10.6519
    31.6679  31.8691  32.4530  32.4770  32.9106  33.0999  33.8192  33.8669
    34.3331  34.4445  35.0095  35.4046  35.8700  36.0411  36.3221  36.8226
    37.0869  37.2449  37.5126  38.7129  38.7294  38.8662  39.9240  40.7902
    40.8883  40.9418  41.0826  41.6300  41.7800  42.3913  42.4074  43.0844
    43.1639  43.5754  44.1961  45.6176  45.7234  45.8456  46.0304  46.5372
    47.2737  49.4570  50.6274  50.8952  52.0526  52.2085  52.3859  52.7001

          k = 0.0000 0.1667 0.2857 (  2666 PWs)   bands (ev):

   -21.5271 -21.1676 -20.9481 -20.1695 -19.9813 -19.8750 -14.5862 -14.4847
     2.0676   2.5420   3.4300   4.3015   4.4527   4.8712   5.4472   5.7313
     6.3502   6.4745   6.8727   6.9231   7.0143   7.1009   7.2233   7.6634
     8.6666   9.3080  10.0226  10.2764  10.4637  10.5417  10.7014  10.7059
    31.3642  32.1484  32.6307  32.8912  32.9762  33.2684  33.2713  33.9527
    34.2024  34.6425  34.7673  35.2647  35.5442  36.1716  36.6919  36.8483
    37.3968  37.7582  37.8134  38.4624  39.1276  39.1971  39.7923  40.0053
    40.4798  40.7655  41.0621  41.5861  41.7016  42.3986  42.7346  42.9575
    43.6821  43.7149  45.0943  45.3548  45.5112  46.1468  46.8430  46.9866
    47.3053  47.3227  50.2945  51.3171  52.1797  52.1879  52.6578  52.7751

          k = 0.0000 0.1667 0.4286 (  2658 PWs)   bands (ev):

   -21.3969 -21.2560 -20.7330 -20.4518 -19.9807 -19.8751 -14.5641 -14.5279
     2.0600   2.5098   4.3600   4.4095   4.6488   5.3410   5.4808   5.7186
     6.0971   6.3076   6.3102   6.7633   6.9750   7.1208   7.1684   7.2448
     8.6649   9.3399   9.8304   9.9844  10.5329  10.5709  10.7482  10.7567
    31.3881  32.0519  32.6865  32.7069  32.8099  33.1397  33.3425  33.6313
    34.2313  34.8830  34.8966  35.3010  36.1025  36.7142  36.7157  36.8289
    37.4671  37.8816  38.0207  38.4048  39.1038  39.6316  39.9652  40.0067
    40.7487  40.7946  40.8726  41.4463  41.7635  41.8847  42.4881  43.2321
    43.3914  44.2142  44.6040  44.6104  44.8934  46.3693  46.6505  46.8742
    48.0438  48.9564  50.0183  51.4668  51.6457  51.9021  52.4542  52.8189

          k = 0.0000 0.3333 0.0000 (  2677 PWs)   bands (ev):

   -21.5355 -21.2383 -20.8808 -20.2580 -19.8747 -19.8747 -14.5779 -14.4841
     2.0210   2.2462   3.8008   4.2388   4.2388   5.1025   5.5530   5.5530
     6.2706   6.6847   6.8310   6.8310   7.0222   7.1439   7.1439   7.2071
     9.2849   9.2849   9.8379  10.1544  10.6910  10.6910  10.6933  10.6933
    31.0936  32.5605  32.5605  32.8561  32.8561  33.0090  33.3069  33.3069
    34.2215  34.7380  35.1445  35.3029  35.4227  36.6410  36.6410  36.8119
    37.6276  37.8431  37.8431  38.6336  39.4771  39.6133  39.6133  39.6200
    39.9415  41.1112  41.2094  41.2734  41.2734  42.1248  42.3999  43.0087
    43.6504  43.6504  44.8554  44.8554  46.0389  46.4528  46.6854  47.4617
    47.4617  47.7186  51.0179  51.0181  51.7396  51.7985  51.7968  52.2478

          k = 0.0000 0.3333 0.1429 (  2660 PWs)   bands (ev):

   -21.4958 -21.2045 -20.8851 -20.2583 -19.9541 -19.8750 -14.5799 -14.4951
     2.0651   2.4445   3.7727   4.3050   4.4078   5.0922   5.4334   5.6733
     6.3315   6.4732   6.8295   6.9055   7.0669   7.1512   7.1876   7.2094
     8.8251   9.3187   9.9055  10.1753  10.5384  10.5890  10.7131  10.7196
    31.2625  32.3568  32.6814  32.7852  32.9675  33.1281  33.1543  33.6942
    34.2439  34.6677  35.1620  35.2887  35.4734  36.2222  36.7644  36.7799
    37.6078  37.8347  37.9804  38.5580  39.0009  39.3264  39.8825  40.0230
    40.5961  40.7645  40.9454  41.2919  41.5164  42.2051  42.8423  42.8544
    43.7591  43.8737  44.6967  44.9957  46.0602  46.4159  46.5137  47.0359
    47.2705  47.7796  50.4281  51.4925  51.7853  52.1333  52.4407  52.5243

          k = 0.0000 0.3333 0.2857 (  2658 PWs)   bands (ev):

   -21.4066 -21.1191 -20.8762 -20.2741 -20.1555 -19.8752 -14.5818 -14.5234
     2.0245   3.2059   3.7330   4.4651   4.8292   5.0780   5.2223   5.8733
     6.0834   6.4971   6.8030   6.8547   7.0918   7.2021   7.2143   7.2959
     7.6672   9.3500   9.9920  10.1841  10.2417  10.3352  10.7639  10.7736
    31.4974  31.9042  32.5091  32.6516  32.8979  33.3357  33.5093  34.0967
    34.6442  34.9371  35.2841  35.3655  35.7308  35.9435  36.3378  37.1895
    37.6784  37.8415  38.3677  38.4577  38.5470  38.8628  39.2320  39.8199
    40.2177  40.4079  41.5641  41.9800  42.2251  42.2934  42.9729  43.3609
    44.3798  44.6228  44.9823  45.0831  45.4643  46.0423  46.5037  46.5661
    46.5737  48.2850  48.5327  51.7426  51.8297  52.0419  52.7187  53.0833

          k = 0.0000 0.3333 0.4286 (  2654 PWs)   bands (ev):

   -21.3340 -21.0656 -20.7427 -20.4717 -20.2438 -19.8740 -14.5752 -14.5542
     1.9806   3.5992   4.4932   4.6289   5.0210   5.1088   5.4283   5.7589
     5.8960   6.1374   6.4551   6.7430   6.9171   7.2000   7.2188   7.2775
     7.3392   9.3686   9.8605  10.0534  10.1643  10.2649  10.8085  10.8169
    31.4026  31.6987  32.0475  32.7797  33.0457  33.3665  34.0236  34.1610
    34.6268  35.0913  35.4586  35.8265  36.0073  36.2836  36.6346  36.8225
    37.2708  37.7268  37.9187  38.0622  38.5785  38.8998  39.4796  39.9849
    40.2082  40.4733  42.1487  42.2265  42.4839  42.7042  42.8977  43.5094
    44.0324  44.3846  44.9863  45.0145  45.1443  45.9674  46.0072  46.9066
    47.1879  47.6645  49.2231  50.0418  51.3672  52.3171  52.6808  52.6973

          k = 0.0000-0.5000 0.0000 (  2666 PWs)   bands (ev):

   -21.3733 -21.3733 -20.5918 -20.5918 -19.8745 -19.8745 -14.5380 -14.5380
     2.1080   2.1080   4.2625   4.2625   5.3355   5.3355   5.4786   5.4786
     5.9456   5.9456   6.7412   6.7412   6.8499   6.8499   7.2520   7.2520
     9.3137   9.3137   9.8074   9.8074  10.7248  10.7248  10.7289  10.7289
    31.5957  31.5957  32.7410  32.7410  32.9130  32.9130  33.1862  33.1862
    34.5095  34.5095  35.0883  35.0883  36.9700  36.9700  37.1509  37.1509
    37.2781  37.2781  37.9522  37.9522  39.3520  39.3520  40.3871  40.3871
    40.7191  40.7191  41.3765  41.3765  41.6933  41.6933  42.0443  42.0443
    43.7237  43.7237  44.4472  44.4472  45.2712  45.2712  47.3863  47.3863
    49.1907  49.1906  50.5152  50.5152  52.1524  52.1523  52.6038  52.6035

          k = 0.0000-0.5000 0.1429 (  2666 PWs)   bands (ev):

   -21.3613 -21.3126 -20.6027 -20.5898 -19.9534 -19.8746 -14.5454 -14.5454
     2.0733   2.3968   4.3409   4.3959   5.2074   5.3562   5.3634   5.6707
     5.9518   5.9855   6.3611   6.7441   6.9559   7.1170   7.1650   7.2580
     8.8223   9.3327   9.8476   9.8707  10.5914  10.6141  10.7495  10.7572
    31.5195  31.7886  32.7110  32.7761  32.8682  33.0358  33.3427  33.4084
    34.2838  34.8174  34.9576  35.2059  36.2759  36.8070  36.8131  37.0856
    37.3595  37.6438  38.2781  38.5344  38.5872  39.6729  40.1983  40.4113
    40.4330  41.2043  41.2802  41.5001  41.6720  41.9108  42.1142  42.1433
    43.7525  44.0878  44.2615  44.3988  45.4089  45.7446  46.8862  46.9559
    48.6176  49.2778  50.3343  51.3443  51.4921  51.5666  52.8656  53.1250

          k = 0.0000-0.5000 0.2857 (  2658 PWs)   bands (ev):

   -21.3324 -21.1395 -20.6280 -20.5896 -20.1618 -19.8748 -14.5613 -14.5612
     1.9955   3.2258   4.5560   4.7265   5.1557   5.1696   5.4311   5.6781
     5.8699   5.9374   6.3040   6.7406   6.9968   7.1579   7.2642   7.3093
     7.6607   9.3621   9.8457   9.9944  10.2671  10.3489  10.7962  10.8070
    31.4058  31.8300  32.1655  32.7146  32.9710  33.2268  33.8616  34.1610
    34.6055  34.8872  35.3112  35.5930  36.1508  36.5454  36.5550  37.1066
    37.1293  37.2994  38.4099  38.5843  38.7145  38.7485  39.2477  39.7930
    40.5220  41.1828  41.7705  42.0187  42.2796  42.6818  42.6818  43.0763
    43.6796  44.2834  44.5127  45.1767  45.2066  46.1492  46.2278  46.6033
    47.4514  48.5562  49.3921  50.0338  51.9507  52.1273  52.3754  52.8615

          k = 0.0000-0.5000 0.4286 (  2662 PWs)   bands (ev):

   -21.3099 -20.9033 -20.6504 -20.6221 -20.3940 -19.8733 -14.5744 -14.5742
     1.9436   4.4553   4.8833   5.0202   5.0525   5.1985   5.3922   5.5326
     5.5596   5.8015   6.0415   6.7206   6.8106   6.8512   7.2913   7.3010
     7.3858   9.3790   9.7554   9.9857  10.0294  10.2279  10.8443  10.8448
    31.3182  31.3770  31.7213  32.9557  33.5572  33.5689  34.2518  34.6004
    34.6382  34.8988  35.9523  36.0205  36.1884  36.3887  36.4366  36.7396
    36.7480  37.0368  37.5883  37.6856  39.1518  39.2496  39.3348  39.5410
    40.9175  41.3629  41.7341  42.5795  42.8026  42.8592  42.9920  43.2827
    43.8737  44.2512  44.4769  45.0795  45.2069  45.7839  46.1918  47.0613
    47.7516  47.8596  48.4815  49.6188  50.9944  51.0620  52.4127  52.4350

          k = 0.2000 0.0000 0.0000 (  2661 PWs)   bands (ev):

   -21.6502 -21.1628 -21.0337 -20.0267 -19.8752 -19.8752 -14.5946 -14.4429
     2.0091   2.2449   3.0336   4.2027   4.2027   4.5329   5.7453   5.7453
     6.2373   6.5860   6.8382   6.8382   7.0821   7.0821   7.1278   8.4163
     9.2571   9.2571  10.2184  10.4121  10.6249  10.6249  10.6432  10.6432
    31.3501  32.3370  32.4067  32.4067  32.4074  33.3552  34.0215  34.0228
    34.0228  34.6158  34.8428  35.2336  35.5788  36.5283  36.5843  36.7067
    36.7067  37.7277  37.7277  38.3071  38.9495  38.9751  39.8467  40.7057
    40.7057  41.1524  41.1553  41.1553  41.3597  42.7608  42.7608  42.7921
    42.8812  43.2020  45.0184  45.5028  45.5028  45.9023  46.3029  46.3029
    47.8092  48.8535  50.7336  51.3896  51.3896  51.9988  51.9988  52.5719

          k = 0.2000 0.0000 0.1429 (  2667 PWs)   bands (ev):

   -21.6103 -21.1400 -21.0336 -20.0282 -19.9536 -19.8758 -14.5935 -14.4565
     2.0696   2.3970   3.0359   4.2414   4.3748   4.5394   5.6039   5.7773
     6.2629   6.5845   6.8875   6.9109   6.9693   7.0273   7.2238   8.4108
     8.8150   9.2800  10.2355  10.4222  10.4797  10.5457  10.6552  10.6622
    31.5433  31.9614  32.4958  32.5700  32.9507  33.3395  33.7197  33.7517
    34.2627  34.4800  34.7802  35.4223  35.7602  36.1535  36.4530  36.9002
    37.1368  37.2732  37.4455  38.6902  38.8351  39.0690  39.8313  40.5151
    40.8666  40.9064  41.0266  41.5624  41.7698  42.4851  42.5975  43.0169
    43.2365  43.5497  44.4879  45.7188  45.7383  45.9078  46.2033  46.3459
    47.2392  48.9580  50.6669  50.9340  52.0960  52.2957  52.4343  52.7273

          k = 0.2000 0.0000 0.2857 (  2659 PWs)   bands (ev):

   -21.5051 -21.1527 -20.9462 -20.1712 -20.0243 -19.8751 -14.5861 -14.4912
     2.0638   2.6892   3.4247   4.3308   4.5448   4.8729   5.3949   5.7736
     6.3831   6.4019   6.8753   6.9619   6.9799   7.1187   7.2461   7.6609
     8.4231   9.3177  10.0440  10.2809  10.3902  10.4916  10.7142  10.7190
    31.4421  32.0321  32.6493  32.9411  32.9423  33.1863  33.4465  34.0264
    34.1536  34.7467  34.7775  35.2311  35.5937  36.0645  36.7463  36.7825
    37.4478  37.7637  37.8975  38.6715  39.0289  39.0452  39.7291  39.8680
    40.2084  40.7487  41.2708  41.8288  41.9201  42.3744  42.5775  42.9622
    43.9161  43.9194  45.1254  45.3248  45.3565  46.0890  46.7672  46.9795
    47.2901  47.3623  49.8696  51.3713  52.3200  52.3890  52.6180  52.9930

          k = 0.2000 0.0000 0.4286 (  2660 PWs)   bands (ev):

   -21.3828 -21.2290 -20.7357 -20.4542 -20.0246 -19.8751 -14.5665 -14.5327
     2.0450   2.6741   4.4027   4.4466   4.6790   5.2913   5.4717   5.7611
     6.1446   6.2008   6.2991   6.7601   7.0222   7.0820   7.2121   7.2535
     8.4133   9.3472   9.8508   9.9982  10.4580  10.5109  10.7589  10.7676
    31.4106  32.0478  32.5856  32.6163  32.8319  33.1894  33.4429  33.9581
    34.1835  34.7675  35.0432  35.3675  36.0322  36.6390  36.7173  36.8021
    37.4735  37.8918  38.1132  38.3234  39.1296  39.4737  39.6566  39.8370
    40.7024  40.7630  41.1540  41.5459  41.9837  42.1734  42.6056  43.1737
    43.3057  44.2830  44.6769  44.7897  45.0208  46.3961  46.4935  46.6893
    47.7639  49.0027  49.6224  51.4271  51.7468  51.9633  52.3119  53.2364

          k = 0.2000 0.1667 0.0000 (  2672 PWs)   bands (ev):

   -21.5971 -21.1360 -21.0288 -20.0304 -19.9803 -19.8758 -14.5930 -14.4612
     2.0713   2.4616   3.0436   4.2554   4.4325   4.5456   5.5656   5.7806
     6.2793   6.5656   6.9009   6.9266   6.9701   7.0027   7.2333   8.4079
     8.6678   9.2845  10.2297  10.4219  10.4361  10.5205  10.6621  10.6679
    31.5957  31.8752  32.5195  32.6257  33.1253  33.3243  33.6750  33.6841
    34.2566  34.4696  34.7276  35.4491  35.7872  36.0539  36.5246  36.9250
    37.1487  37.2629  37.4488  38.8268  38.8590  39.0605  39.6814  40.4579
    40.6767  40.9562  41.0793  41.6715  41.8569  42.4686  42.5860  43.0207
    43.3142  43.6802  44.4109  45.6593  45.7688  45.8949  46.3391  46.3960
    47.1188  48.8574  50.4965  50.9007  52.2058  52.4429  52.5969  52.8428

          k = 0.2000 0.1667 0.1429 (  2665 PWs)   bands (ev):

   -21.5545 -21.0974 -21.0453 -20.0304 -19.9827 -19.9515 -14.5927 -14.4742
     2.3115   2.4577   3.0301   4.4169   4.4658   4.5649   5.4801   5.9400
     6.1190   6.6924   6.8074   6.9109   6.9622   7.1245   7.1846   8.4151
     8.6686   8.8316  10.2640  10.4531  10.4562  10.5242  10.5286  10.5832
    31.8202  32.0708  32.2310  33.0534  33.1903  33.3092  33.6281  33.7305
    33.8956  34.0876  35.2592  35.6732  35.6964  35.8532  36.2967  36.8358
    36.9358  37.3503  37.6048  38.4662  38.9207  39.2142  40.7643  40.7889
    40.8952  40.9562  41.2499  41.5909  41.6702  42.0889  42.1540  42.7116
    42.7931  44.6367  44.8857  45.3305  45.3990  45.9123  46.3647  46.4572
    46.7558  49.0630  50.9008  51.2606  51.3539  52.8297  52.9893  53.1131

          k = 0.2000 0.1667 0.2857 (  2655 PWs)   bands (ev):

   -21.4456 -21.1074 -20.9609 -20.1723 -20.0264 -19.9800 -14.5889 -14.5071
     2.4186   2.6799   3.3711   4.5355   4.6036   4.8907   5.3691   5.9003
     6.2403   6.5021   6.7659   6.9646   7.0416   7.1253   7.2047   7.6733
     8.4349   8.6880  10.1208  10.3152  10.4203  10.5161  10.5253  10.5845
    31.7352  32.3031  32.5380  32.8450  33.0843  33.3569  33.6583  33.8009
    34.1533  34.3514  34.9932  35.2956  35.3712  35.8602  36.5269  36.7139
    37.2134  37.9560  38.0640  38.6853  38.8906  39.5589  40.4076  40.6627
    40.7239  40.9551  41.1750  41.2787  41.6079  41.9836  42.3823  42.7564
    43.4288  44.5965  44.7038  45.2954  45.5459  46.0150  46.3265  46.7808
    47.1297  47.8205  50.4034  51.2050  52.0553  52.7063  52.7855  53.2765

          k = 0.2000 0.1667 0.4286 (  2655 PWs)   bands (ev):

   -21.3162 -21.1950 -20.7426 -20.4582 -20.0255 -19.9810 -14.5745 -14.5451
     2.4307   2.6351   4.4211   4.5897   4.7066   5.3172   5.4491   5.8430
     6.1479   6.2502   6.3956   6.5387   7.0800   7.1438   7.1579   7.1962
     8.4370   8.6931   9.9322  10.0367  10.4901  10.5421  10.5845  10.6154
    31.6588  32.0083  32.7841  32.9219  33.0713  33.3656  33.5294  33.8004
    34.2426  34.4452  34.8202  34.9893  36.0080  36.0810  36.4058  36.6209
    37.7761  38.0607  38.6034  39.2265  39.3691  39.7389  39.9438  40.1780
    40.4330  40.7750  40.9695  41.1358  41.5981  42.1758  42.7548  42.9747
    43.4749  43.7643  44.7148  45.3740  45.6080  45.7637  46.0482  46.4638
    47.6667  48.3584  50.4456  51.0044  51.6334  52.2470  53.0525  53.2335

          k = 0.2000 0.3333 0.0000 (  2656 PWs)   bands (ev):

   -21.4632 -21.1746 -20.8868 -20.2611 -20.0244 -19.8746 -14.5811 -14.5051
     2.0576   2.6965   3.7491   4.3593   4.5533   5.0806   5.3468   5.7650
     6.3231   6.3826   6.8283   6.9844   6.9938   7.1763   7.2070   7.2396
     8.4187   9.3284   9.9486  10.1856  10.4147  10.5005  10.7322  10.7403
    31.3813  32.1544  32.6501  32.8022  32.8605  33.2160  33.3669  33.9953
    34.1552  34.8663  34.9829  35.2779  35.5833  36.1786  36.6457  36.7789
    37.6054  38.0446  38.1286  38.5868  38.7318  39.0522  39.7215  39.9974
    40.2425  40.6722  41.2854  41.7140  41.8341  42.2517  42.7113  42.9346
    44.0454  44.0768  44.8123  45.0616  45.8832  46.2430  46.5727  46.7370
    47.0493  47.9268  49.7302  51.5980  52.2258  52.2182  52.5708  52.7162

          k = 0.2000 0.3333 0.1429 (  2657 PWs)   bands (ev):

   -21.4182 -21.1439 -20.8954 -20.2628 -20.0252 -19.9537 -14.5846 -14.5163
     2.3301   2.6773   3.7056   4.5060   4.6007   5.0859   5.3545   5.8260
     6.2827   6.4629   6.6878   6.9701   7.1005   7.1217   7.2121   7.2190
     8.4294   8.8481  10.0129  10.2123  10.4388  10.5220  10.5908  10.6325
    31.5947  32.3211  32.6139  32.8260  33.0189  33.2615  33.5980  33.8803
    34.1727  34.3618  35.1297  35.2796  35.3856  36.0093  36.4014  36.7153
    37.6231  37.8812  38.3217  38.6750  39.1397  39.6122  40.0888  40.2761
    40.5649  40.8425  40.9859  41.2412  41.5912  42.1840  42.6890  42.8644
    43.6500  44.4042  44.4844  45.3130  45.7143  46.0598  46.4047  46.7887
    47.1477  47.7055  50.2178  51.3213  52.2633  52.4825  52.5653  53.2254

          k = 0.2000 0.3333 0.2857 (  2656 PWs)   bands (ev):

   -21.3114 -21.0605 -20.8992 -20.2713 -20.1623 -20.0258 -14.5907 -14.5435
     2.5739   3.1616   3.6424   4.7231   4.9069   5.1001   5.2801   6.0182
     6.1926   6.4248   6.7208   6.8162   7.0609   7.1416   7.2087   7.2616
     7.6904   8.4558  10.1140  10.2345  10.2868  10.3674  10.5145  10.5662
    31.9583  32.2349  32.6314  32.8198  32.9999  33.4593  33.7431  33.8968
    34.4535  34.7324  34.8916  35.0226  35.4393  35.7146  36.2246  36.7756
    37.6433  38.1031  38.5164  38.8781  39.3123  39.4259  39.9312  40.3788
    40.5278  40.7393  41.2019  41.6167  41.9778  42.4326  42.5640  43.1783
    43.8101  44.2121  44.3823  45.1052  45.3122  45.8373  46.5030  46.5610
    46.9187  47.8638  49.4944  50.9122  51.9332  52.4148  53.0669  53.4824

          k = 0.2000 0.3333 0.4286 (  2643 PWs)   bands (ev):

   -21.2176 -21.0329 -20.7519 -20.4710 -20.2514 -20.0271 -14.5888 -14.5718
     2.5383   3.5297   4.3897   4.8429   5.0756   5.2263   5.4233   5.9789
     6.0779   6.1453   6.4580   6.6126   6.9211   7.0932   7.1695   7.2100
     7.3033   8.4794   9.9953  10.0866  10.2070  10.3107  10.5742  10.5984
    31.8429  31.9757  32.5386  32.9836  33.4882  33.5741  33.8853  34.0211
    34.5043  34.5472  34.9339  35.2783  35.3884  35.6993  36.2168  36.5439
    37.8382  38.1003  38.8842  39.2093  39.4031  39.5583  39.8118  39.9459
    40.4039  40.6934  40.9830  41.9790  42.3596  42.6561  42.9288  43.5232
    43.5932  43.7887  44.4826  44.8441  45.1727  45.8685  46.2900  46.7042
    47.0492  48.0261  48.9072  50.4397  51.0484  52.0864  52.6276  52.9809

          k = 0.2000-0.5000 0.0000 (  2658 PWs)   bands (ev):

   -21.3506 -21.2546 -20.6115 -20.5887 -20.0247 -19.8743 -14.5512 -14.5512
     2.0442   2.6679   4.4119   4.5147   5.1768   5.2825   5.3794   5.7095
     5.9554   6.0826   6.1692   6.7450   7.0376   7.1016   7.2048   7.2727
     8.4163   9.3500   9.8548   9.9208  10.4734  10.5124  10.7673  10.7772
    31.4712  31.9095  32.5159  32.6693  32.8522  33.1246  33.5050  33.9472
    34.1954  34.7540  35.0895  35.3090  36.1410  36.7011  36.8042  37.1422
    37.1535  37.6355  38.3779  38.4035  38.9420  39.3707  39.6103  39.9147
    40.9382  41.0087  41.5615  41.8639  41.8814  41.9875  42.3269  42.3916
    43.7436  43.9881  44.3462  44.7457  45.4645  45.9932  46.5667  46.6665
    48.1302  49.3247  49.7833  50.9264  51.6935  51.9663  52.6728  52.7505

          k = 0.2000-0.5000 0.1429 (  2658 PWs)   bands (ev):

   -21.2893 -21.2423 -20.6092 -20.5988 -20.0254 -19.9537 -14.5591 -14.5590
     2.3316   2.6306   4.5242   4.5697   5.1450   5.1497   5.6001   5.6807
     5.9744   6.0331   6.3429   6.5536   7.1114   7.1397   7.1856   7.1879
     8.4320   8.8540   9.9169   9.9561  10.4965  10.5360  10.6349  10.6594
    31.6705  31.8462  32.8044  32.9193  33.1399  33.2019  33.3811  33.8419
    34.2980  34.6260  34.7154  35.0244  36.0645  36.1260  36.4772  36.7454
    37.7439  38.1564  38.7885  38.9486  38.9870  39.8890  40.0320  40.1881
    40.3496  40.9288  40.9607  41.7329  41.7536  41.8871  42.3588  42.4145
    43.6716  43.8522  44.8303  45.0617  45.7197  45.8623  46.0372  46.1372
    48.1415  48.6656  50.5140  51.0584  51.6171  51.7258  52.8508  53.0857

          k = 0.2000-0.5000 0.2857 (  2648 PWs)   bands (ev):

   -21.2124 -21.1154 -20.6224 -20.6052 -20.1649 -20.0267 -14.5766 -14.5765
     2.5560   3.1546   4.7316   4.7873   5.1040   5.1040   5.6549   5.6731
     6.0144   6.0709   6.3668   6.5536   7.0056   7.1259   7.1693   7.2086
     7.7006   8.4678   9.9661  10.0301  10.3177  10.3935  10.5625  10.5879
    31.8091  31.9679  32.6944  33.0189  33.2492  33.4533  33.8720  34.2258
    34.2725  34.5326  34.6542  35.1075  35.6154  35.8747  36.3415  36.4839
    37.8731  38.1681  38.9300  39.1948  39.2085  39.5080  39.9771  40.0795
    40.7765  41.1571  41.2055  41.5295  42.0328  42.1263  42.1403  43.2154
    43.9772  44.0261  44.6958  44.7535  45.3498  45.7891  46.0169  46.4973
    47.3945  48.0979  49.8695  50.3702  51.2892  51.6682  52.6899  53.2608

          k = 0.2000-0.5000 0.4286 (  2646 PWs)   bands (ev):

   -21.1866 -20.8716 -20.6438 -20.6213 -20.4198 -20.0279 -14.5908 -14.5907
     2.4969   4.3532   4.8885   4.9122   5.1289   5.2418   5.4957   5.6626
     5.8448   5.9678   6.1684   6.6435   6.8119   6.8590   7.1644   7.1943
     7.1998   8.4955   9.9305  10.0129  10.0599  10.2615  10.6154  10.6205
    31.7694  31.7956  32.1828  33.5456  33.6737  34.0234  34.0729  34.3001
    34.4604  34.7957  34.9524  35.1222  35.3526  35.4739  35.9834  36.2343
    36.9569  38.7301  39.1681  39.2263  39.5240  39.7698  39.9627  40.3852
    40.4452  40.9776  41.1453  41.6070  41.7679  42.5761  42.8015  43.1445
    43.5939  43.8488  44.7834  45.3649  45.8590  45.9415  46.5430  46.9874
    47.0034  48.0048  48.3577  48.5038  50.6035  52.0963  52.2078  52.4312

          k = 0.4000 0.0000 0.0000 (  2657 PWs)   bands (ev):

   -21.4692 -21.2859 -20.7761 -20.3895 -19.8741 -19.8741 -14.5641 -14.5063
     2.0479   2.1956   4.2542   4.2542   4.3770   5.4507   5.5041   5.5041
     6.1273   6.5599   6.7504   6.7805   6.7805   6.9586   7.2099   7.2099
     9.3043   9.3043   9.7547  10.0074  10.7139  10.7139  10.7196  10.7196
    31.1800  32.2999  32.6620  32.7295  33.0210  33.0210  33.0966  33.0966
    34.3386  34.6598  35.1231  35.1804  36.4254  36.7057  36.7057  36.9379
    37.4283  37.6982  37.6982  39.1016  39.3743  39.3743  39.8576  40.0522
    40.0841  40.8735  41.1257  41.3315  41.3315  41.8819  41.9727  43.7201
    43.8492  43.8492  44.4583  44.4583  44.4686  46.3974  47.0126  47.6244
    48.4619  48.4620  50.7338  50.7337  51.8034  51.8037  51.9109  52.5036

          k = 0.4000 0.0000 0.1429 (  2659 PWs)   bands (ev):

   -21.4333 -21.2499 -20.7807 -20.3923 -19.9534 -19.8753 -14.5684 -14.5162
     2.0677   2.4197   4.2885   4.3282   4.4600   5.3865   5.3948   5.6637
     6.1994   6.4067   6.5393   6.7784   6.9310   7.1299   7.1450   7.2212
     8.8229   9.3316   9.8242  10.0329  10.5693  10.6068  10.7346  10.7428
    31.3093  32.1997  32.6945  32.7872  32.8455  33.1164  33.2291  33.4728
    34.2663  34.7560  35.0267  35.2914  36.0418  36.4827  36.7393  36.8189
    37.5835  37.8813  37.8817  38.6144  39.1500  39.6219  39.9311  40.1892
    40.4418  40.6424  41.0154  41.3977  41.4225  41.9346  42.5446  43.1203
    43.9093  44.0369  44.4739  44.6257  44.9834  46.5233  46.6744  47.0371
    47.9106  48.6214  50.2651  51.4646  51.4984  52.1768  52.5509  52.6658

          k = 0.4000 0.0000 0.2857 (  2657 PWs)   bands (ev):

   -21.3632 -21.1268 -20.7885 -20.4047 -20.1605 -19.8748 -14.5760 -14.5399
     2.0061   3.2264   4.2537   4.5202   4.8482   5.1762   5.3429   5.8811
     5.9541   6.4147   6.4631   6.7659   6.9629   7.1307   7.2573   7.3022
     7.6616   9.3577   9.8993  10.0809  10.2513  10.3382  10.7836  10.7933
    31.4355  31.8923  32.2953  32.6480  32.9282  33.2983  33.7212  34.1280
    34.6024  34.9367  35.3603  35.4842  35.8515  36.3421  36.5378  36.9577
    37.5371  37.7241  38.0198  38.5681  38.7428  38.8227  39.4924  39.6904
    40.3028  40.4119  41.8897  41.9141  42.2934  42.5015  42.8855  43.5454
    43.8266  44.4267  44.9972  45.1117  45.2576  46.0972  46.2323  46.5816
    46.9632  48.3450  48.9073  50.9314  51.6773  52.2198  52.5929  52.9856

          k = 0.4000 0.0000 0.4286 (  2657 PWs)   bands (ev):

   -21.3187 -20.9714 -20.7301 -20.5062 -20.3439 -19.8739 -14.5770 -14.5642
     1.9564   4.1647   4.5118   4.7608   5.0458   5.2381   5.4063   5.5581
     5.9031   6.0490   6.2844   6.7194   6.8368   6.8747   7.2557   7.2923
     7.3703   9.3751   9.8129  10.0238  10.0787  10.2216  10.8309  10.8345
    31.3668  31.4909  31.8440  32.8950  33.2305  33.5628  34.2073  34.3622
    34.7249  34.8143  35.9390  36.0613  36.0734  36.2990  36.3971  36.7807
    37.0770  37.3464  37.5067  38.0987  38.7150  39.1328  39.3708  39.8221
    40.0209  41.1832  42.2803  42.4707  42.6604  42.7365  42.9597  43.2241
    44.4179  44.4263  44.6452  44.7643  45.5816  45.7123  45.8370  47.1730
    47.3780  47.4182  49.2533  49.4040  51.0017  51.7444  52.5071  52.9190

          k = 0.4000 0.1667 0.0000 (  2659 PWs)   bands (ev):

   -21.4220 -21.2360 -20.7824 -20.3935 -19.9807 -19.8753 -14.5697 -14.5194
     2.0601   2.5183   4.2842   4.3525   4.5074   5.3525   5.3867   5.7028
     6.2263   6.3336   6.5309   6.7776   6.9632   7.1055   7.1788   7.2261
     8.6644   9.3371   9.8411  10.0396  10.5223  10.5681  10.7415  10.7498
    31.3425  32.1759  32.6462  32.7715  32.7893  33.1827  33.2877  33.6539
    34.2234  34.8475  34.9292  35.3404  35.9911  36.4816  36.6985  36.8041
    37.6186  37.9087  37.9683  38.4608  39.1494  39.5830  39.8133  40.0202
    40.6058  40.6294  40.9603  41.4790  41.6898  41.9801  42.6398  43.0228
    43.8410  44.1175  44.5964  44.6991  45.0386  46.5482  46.5751  46.8906
    47.7276  48.6627  50.0229  51.5229  51.7123  52.0883  52.4743  52.7779

          k = 0.4000 0.1667 0.1429 (  2662 PWs)   bands (ev):

   -21.3776 -21.2070 -20.7886 -20.3968 -19.9813 -19.9539 -14.5748 -14.5294
     2.3304   2.5034   4.2421   4.4967   4.5569   5.3590   5.3689   5.7537
     6.2263   6.4444   6.5040   6.5783   7.0836   7.1125   7.1614   7.1827
     8.6780   8.8418   9.9074  10.0684  10.5409  10.5902  10.6088  10.6365
    31.5208  32.1311  32.7639  32.9003  33.0161  33.2813  33.3999  33.6225
    34.2224  34.4168  35.0116  35.1297  35.9770  36.1304  36.4575  36.6740
    37.6704  37.9444  38.3479  39.3122  39.4101  39.5261  39.8293  40.3348
    40.5260  40.7230  40.8900  41.0504  41.3319  42.1553  42.7795  42.9754
    43.7674  43.8099  44.3904  45.2647  45.6666  45.9678  46.2607  46.6801
    47.6459  48.3233  50.5614  51.0357  52.1167  52.2353  52.7775  53.0661

          k = 0.4000 0.1667 0.2857 (  2650 PWs)   bands (ev):

   -21.2883 -21.0981 -20.7976 -20.4047 -20.1633 -19.9816 -14.5845 -14.5530
     2.3960   3.1822   4.1875   4.6928   4.8985   5.2535   5.3412   5.9362
     6.1242   6.4317   6.4388   6.6438   6.9629   7.1503   7.1677   7.2340
     7.6881   8.7145   9.9900  10.1131  10.2884  10.3725  10.6111  10.6403
    31.7445  32.0390  32.5669  32.8305  33.3172  33.5038  33.5998  33.9208
    34.4515  34.7235  34.8819  35.1681  35.5970  35.8530  36.3385  36.6304
    37.8297  38.0892  38.7903  38.9810  39.3627  39.4180  39.7258  40.0389
    40.2383  40.5841  41.0984  41.6555  41.9726  42.8473  43.0126  43.4478
    43.4840  43.7034  44.6645  45.0013  45.4410  46.0539  46.2514  46.4498
    46.9577  48.2206  49.2717  51.1397  51.3347  52.2842  52.9759  53.3100

          k = 0.4000 0.1667 0.4286 (  2652 PWs)   bands (ev):

   -21.2339 -20.9490 -20.7366 -20.4990 -20.3585 -19.9828 -14.5879 -14.5767
     2.3444   4.1077   4.4149   4.8785   5.1552   5.2696   5.3772   5.8200
     5.9671   6.0849   6.3363   6.6481   6.8423   6.8602   7.2055   7.2131
     7.2396   8.7350   9.9341  10.0440  10.0965  10.2598  10.6640  10.6747
    31.6882  31.7438  32.1907  33.2150  33.6979  33.7754  33.9043  34.1489
    34.5660  34.6846  35.1548  35.2835  35.5212  35.7258  35.9651  36.5806
    37.2017  38.6245  38.9520  39.1970  39.3050  39.3734  39.7717  39.9283
    39.9860  40.6809  40.9820  42.3719  42.5289  42.8723  43.1499  43.2974
    43.5455  43.8669  44.0056  45.2984  45.4604  46.0527  46.3657  46.7486
    47.2007  47.8542  48.5376  49.5775  50.9912  52.0589  52.5467  52.7140

          k = 0.4000 0.3333 0.0000 (  2652 PWs)   bands (ev):

   -21.3441 -21.0689 -20.7838 -20.4162 -20.2407 -19.8739 -14.5775 -14.5486
     1.9870   3.5924   4.2518   4.6030   5.0109   5.1202   5.3314   5.8076
     5.9250   6.3914   6.5007   6.7533   6.9104   7.1888   7.2213   7.2715
     7.3340   9.3658   9.8918  10.0825  10.1720  10.2565  10.8032  10.8117
    31.4286  31.7286  32.1089  32.7421  33.0143  33.3688  33.9446  34.1435
    34.6543  35.0403  35.5237  35.7762  35.9316  36.2024  36.4545  37.0080
    37.5325  37.6637  37.8865  38.1116  38.6173  38.8609  39.5900  39.6607
    40.2225  40.4880  41.8525  42.0805  42.4453  42.9431  43.0441  43.5494
    44.0523  44.4915  44.9778  45.0470  45.3482  45.9462  45.9644  46.8483
    46.9493  47.6738  49.0430  50.3969  51.3571  52.5566  52.6335  52.7338

          k = 0.4000 0.3333 0.1429 (  2654 PWs)   bands (ev):

   -21.2851 -21.0495 -20.7911 -20.4146 -20.2461 -19.9546 -14.5846 -14.5585
     2.2728   3.5541   4.1935   4.7202   5.0416   5.1980   5.3277   5.9157
     6.0086   6.3878   6.4964   6.6803   6.9094   7.1450   7.1818   7.2578
     7.2929   8.8811   9.9704  10.1037  10.1907  10.2886  10.6746  10.6938
    31.6666  31.8743  32.3600  32.8952  33.4473  33.4914  33.7053  33.9641
    34.5851  34.8803  35.1778  35.2977  35.5175  35.7693  36.2703  36.7601
    37.7254  38.0590  38.7194  39.0143  39.1268  39.4402  39.5092  39.7887
    40.1598  40.4026  41.0635  42.0355  42.5137  42.9814  43.1866  43.4250
    43.6141  43.9427  44.4177  45.0219  45.4834  45.9540  46.1711  46.5816
    46.9766  48.3359  48.6233  50.6308  51.3437  52.2516  52.8127  53.0105

          k = 0.4000 0.3333 0.2857 (  2651 PWs)   bands (ev):

   -21.1312 -20.9858 -20.8117 -20.4119 -20.2597 -20.1687 -14.5997 -14.5816
     3.0888   3.4841   4.0921   5.0270   5.1308   5.2685   5.3453   6.1324
     6.2127   6.3273   6.4113   6.6437   6.9312   7.0020   7.1148   7.1423
     7.3143   7.7351  10.0984  10.1437  10.2455  10.3119  10.3756  10.4138
    32.2560  32.2949  32.8038  32.8914  33.2565  33.4071  33.8973  34.1825
    34.4462  34.6624  34.7316  34.9756  35.5377  35.7294  36.0896  36.4841
    38.1418  38.2970  38.6114  38.8254  39.2289  39.5537  39.6519  39.8552
    40.9870  41.1189  41.5963  41.9180  42.6155  42.9131  43.1329  43.3820
    43.5696  43.7623  44.2439  44.4617  45.1996  45.6396  45.9579  46.6563
    47.0620  47.7207  49.1374  50.0011  50.9304  51.5664  52.5299  53.0988

          k = 0.4000 0.3333 0.4286 (  2646 PWs)   bands (ev):

   -21.0057 -20.8827 -20.7614 -20.4837 -20.3926 -20.2645 -14.6092 -14.6028
     3.4284   4.0229   4.2909   5.1542   5.2794   5.3084   5.4074   5.8899
     6.1948   6.3346   6.4410   6.5454   6.8130   6.8938   7.0196   7.0314
     7.0836   7.3362  10.0966  10.1128  10.1535  10.2447  10.3091  10.3268
    32.4109  32.5035  32.9360  33.0160  33.2734  33.5814  34.0872  34.2735
    34.4406  34.5110  34.6172  35.1658  35.3757  35.4360  36.1191  36.4266
    38.1409  38.4640  38.5909  38.9500  39.0216  39.4418  39.7935  39.8919
    40.6827  41.5404  41.7315  41.8272  42.4933  43.0949  43.3688  43.5813
    43.9406  44.0413  44.4642  44.9201  45.2583  45.5307  46.0809  46.5641
    47.0659  47.4960  48.2594  49.4823  49.6651  50.8287  51.3908  52.5362

          k = 0.4000-0.5000 0.0000 (  2650 PWs)   bands (ev):

   -21.3120 -20.9489 -20.6467 -20.6086 -20.3565 -19.8734 -14.5724 -14.5724
     1.9511   4.1904   4.8135   5.0084   5.0378   5.1923   5.4806   5.5313
     5.5771   5.8409   6.2563   6.7271   6.8380   6.8767   7.2749   7.2977
     7.3785   9.3781   9.7787  10.0029  10.0586  10.2304  10.8388  10.8404
    31.3318  31.4452  31.7803  32.9330  33.4286  33.4793  34.2318  34.4893
    34.7566  34.8124  35.8705  36.0676  36.1281  36.5299  36.5370  36.6064
    36.6573  37.2863  37.7142  37.8352  38.8216  39.1775  39.2695  39.7135
    40.9271  41.1476  41.6194  42.6664  42.7776  42.9432  43.0393  43.1953
    43.9750  44.2561  44.6487  44.7086  45.5152  45.8212  45.9936  47.1647
    47.5583  47.7291  48.7686  49.5575  51.1145  51.2978  52.5409  52.5947

          k = 0.4000-0.5000 0.1429 (  2650 PWs)   bands (ev):

   -21.2489 -20.9341 -20.6435 -20.6104 -20.3670 -19.9545 -14.5814 -14.5813
     2.2368   4.1381   4.8674   4.9110   5.1160   5.1601   5.5496   5.6167
     5.7432   5.9009   6.2901   6.6761   6.8283   6.8764   7.2252   7.2437
     7.2716   8.8979   9.8736  10.0157  10.0729  10.2613  10.7155  10.7206
    31.5645  31.6437  32.0374  33.4050  33.5772  33.5995  34.1892  34.2436
    34.6141  34.7607  35.2612  35.2681  35.5419  35.7838  36.2839  36.4260
    36.9066  38.7135  38.8647  38.9097  39.2716  39.3048  39.4047  39.6981
    40.6609  40.9790  41.4725  41.7341  42.2886  42.8214  43.0559  43.4109
    43.4622  44.2351  44.3020  45.1579  45.5506  45.8388  46.3841  47.0224
    47.0964  48.1799  48.8474  48.8749  51.0009  51.6906  52.5963  52.8326

          k = 0.4000-0.5000 0.2857 (  2640 PWs)   bands (ev):

   -21.0703 -20.8962 -20.6360 -20.6188 -20.3898 -20.1724 -14.6015 -14.6015
     3.0538   4.0471   4.8675   4.8819   5.1990   5.2748   5.5625   5.6790
     6.0912   6.1533   6.4045   6.5587   6.8259   6.8905   7.0405   7.1071
     7.1123   7.7566  10.0354  10.0535  10.1298  10.2586  10.4191  10.4316
    32.1894  32.1966  32.6816  33.2706  33.3529  33.9422  34.0288  34.1665
    34.5125  34.6923  34.8274  35.0880  35.3143  35.3897  35.8730  36.2862
    37.7031  38.4446  38.8801  39.0331  39.3241  39.4370  40.4443  40.5137
    40.8339  40.9309  41.5982  41.6528  41.9252  42.5446  43.1676  43.2819
    43.4609  43.9429  44.8357  45.4461  45.4669  45.9773  46.4085  46.5723
    46.9814  47.1496  48.7369  48.8244  50.2299  50.8935  51.7296  52.7543

          k = 0.4000-0.5000 0.4286 (  2640 PWs)   bands (ev):

   -20.8577 -20.8067 -20.6339 -20.6313 -20.4664 -20.4086 -14.6178 -14.6177
     3.9865   4.2484   4.8618   4.8670   5.2966   5.3482   5.4396   5.5165
     6.3131   6.3553   6.4791   6.5130   6.7409   6.8208   6.9120   6.9179
     6.9706   6.9733  10.0888  10.0994  10.1521  10.1992  10.2044  10.2198
    32.7728  32.7948  33.1144  33.1167  33.3822  33.5513  33.9947  33.9951
    34.2603  34.2836  35.0651  35.1565  35.3910  35.4404  36.0926  36.1227
    38.2275  38.2283  38.6527  38.7981  39.4420  39.5746  40.0128  40.1483
    40.7747  40.8333  41.2076  41.2562  42.4890  42.9467  44.0448  44.1348
    44.4234  44.6709  44.9913  45.3870  45.8967  45.9834  46.3335  46.5492
    46.7505  46.8224  48.1243  48.4041  48.9147  49.1746  50.5014  51.1082

     the Fermi energy is    44.8007 ev

!    total energy              =   -1348.78379049 Ry
     Harris-Foulkes estimate   =   -1348.78381122 Ry
     estimated scf accuracy    <       0.00002956 Ry

     The total energy is the sum of the following terms:

     one-electron contribution =     242.15632137 Ry
     hartree contribution      =      76.29751500 Ry
     xc contribution           =    -150.69064970 Ry
     ewald contribution        =   -1516.24694932 Ry
     smearing contrib. (-TS)   =      -0.30002785 Ry

     convergence has been achieved in   7 iterations

     Forces acting on atoms (Ry/au):

     atom    1 type  1   force =     0.00000000    0.00000000    0.00000000
     atom    2 type  1   force =     0.00000000    0.00000000    0.00000000
     atom    3 type  1   force =     0.00000000    0.00000000    0.00000000
     atom    4 type  1   force =     0.00000000    0.00000000    0.00000000
     atom    5 type  1   force =     0.00000000    0.00000000    0.00000000
     atom    6 type  1   force =     0.00000000    0.00000000    0.00000000
     atom    7 type  2   force =     0.00000000    0.00000000    0.00000000
     atom    8 type  2   force =     0.00000000    0.00000000    0.00000000

     Total force =     0.000000     Total SCF correction =     0.000000


     entering subroutine stress ...

          total   stress  (Ry/bohr**3)                   (kbar)     P= 4639.26
   0.03153702   0.00000000   0.00000000       4639.26      0.00      0.00
   0.00000000   0.03153702   0.00000000          0.00   4639.26      0.00
   0.00000000   0.00000000   0.03153702          0.00      0.00   4639.26


     BFGS Geometry Optimization

     number of scf cycles    =   1
     number of bfgs steps    =   0

     enthalpy new            =   -1348.7837904936 Ry

     new trust radius        =       0.5000000000 bohr
     new conv_thr            =       0.0001000000 Ry

     new unit-cell volume =    828.02266 a.u.^3 (   122.70030 Ang^3 )

CELL_PARAMETERS (alat=  8.53457320)
   1.100269143   0.000000000   0.000000000
   0.000000000   1.100269143   0.000000000
   0.000000000   0.000000000   1.100269143

ATOMIC_POSITIONS (crystal)
Cr       0.000000000   0.500000000   0.250000000
Cr       0.000000000   0.500000000   0.750000000
Cr       0.500000000   0.750000000   0.000000000
Cr       0.500000000   0.250000000   0.000000000
Cr       0.750000000   0.000000000   0.500000000
Cr       0.250000000   0.000000000   0.500000000
Si       0.500000000   0.500000000   0.500000000
Si       0.000000000   0.000000000   0.000000000



     Writing output data file Prototype-La-cP8-Cr3Si.save
     NEW-OLD atomic charge density approx. for the potential
     NEW k-points:
        k(    1) = (   0.0000000   0.0000000   0.0000000), wk =   0.0095238
        k(    2) = (   0.0000000   0.0000000   0.1298384), wk =   0.0190476
        k(    3) = (   0.0000000   0.0000000   0.2596767), wk =   0.0190476
        k(    4) = (   0.0000000   0.0000000   0.3895151), wk =   0.0190476
        k(    5) = (   0.0000000   0.1514781   0.0000000), wk =   0.0190476
        k(    6) = (   0.0000000   0.1514781   0.1298384), wk =   0.0380952
        k(    7) = (   0.0000000   0.1514781   0.2596767), wk =   0.0380952
        k(    8) = (   0.0000000   0.1514781   0.3895151), wk =   0.0380952
        k(    9) = (   0.0000000   0.3029562   0.0000000), wk =   0.0190476
        k(   10) = (   0.0000000   0.3029562   0.1298384), wk =   0.0380952
        k(   11) = (   0.0000000   0.3029562   0.2596767), wk =   0.0380952
        k(   12) = (   0.0000000   0.3029562   0.3895151), wk =   0.0380952
        k(   13) = (   0.0000000  -0.4544343   0.0000000), wk =   0.0095238
        k(   14) = (   0.0000000  -0.4544343   0.1298384), wk =   0.0190476
        k(   15) = (   0.0000000  -0.4544343   0.2596767), wk =   0.0190476
        k(   16) = (   0.0000000  -0.4544343   0.3895151), wk =   0.0190476
        k(   17) = (   0.1817737   0.0000000   0.0000000), wk =   0.0190476
        k(   18) = (   0.1817737   0.0000000   0.1298384), wk =   0.0380952
        k(   19) = (   0.1817737   0.0000000   0.2596767), wk =   0.0380952
        k(   20) = (   0.1817737   0.0000000   0.3895151), wk =   0.0380952
        k(   21) = (   0.1817737   0.1514781   0.0000000), wk =   0.0380952
        k(   22) = (   0.1817737   0.1514781   0.1298384), wk =   0.0761905
        k(   23) = (   0.1817737   0.1514781   0.2596767), wk =   0.0761905
        k(   24) = (   0.1817737   0.1514781   0.3895151), wk =   0.0761905
        k(   25) = (   0.1817737   0.3029562   0.0000000), wk =   0.0380952
        k(   26) = (   0.1817737   0.3029562   0.1298384), wk =   0.0761905
        k(   27) = (   0.1817737   0.3029562   0.2596767), wk =   0.0761905
        k(   28) = (   0.1817737   0.3029562   0.3895151), wk =   0.0761905
        k(   29) = (   0.1817737  -0.4544343   0.0000000), wk =   0.0190476
        k(   30) = (   0.1817737  -0.4544343   0.1298384), wk =   0.0380952
        k(   31) = (   0.1817737  -0.4544343   0.2596767), wk =   0.0380952
        k(   32) = (   0.1817737  -0.4544343   0.3895151), wk =   0.0380952
        k(   33) = (   0.3635474   0.0000000   0.0000000), wk =   0.0190476
        k(   34) = (   0.3635474   0.0000000   0.1298384), wk =   0.0380952
        k(   35) = (   0.3635474   0.0000000   0.2596767), wk =   0.0380952
        k(   36) = (   0.3635474   0.0000000   0.3895151), wk =   0.0380952
        k(   37) = (   0.3635474   0.1514781   0.0000000), wk =   0.0380952
        k(   38) = (   0.3635474   0.1514781   0.1298384), wk =   0.0761905
        k(   39) = (   0.3635474   0.1514781   0.2596767), wk =   0.0761905
        k(   40) = (   0.3635474   0.1514781   0.3895151), wk =   0.0761905
        k(   41) = (   0.3635474   0.3029562   0.0000000), wk =   0.0380952
        k(   42) = (   0.3635474   0.3029562   0.1298384), wk =   0.0761905
        k(   43) = (   0.3635474   0.3029562   0.2596767), wk =   0.0761905
        k(   44) = (   0.3635474   0.3029562   0.3895151), wk =   0.0761905
        k(   45) = (   0.3635474  -0.4544343   0.0000000), wk =   0.0190476
        k(   46) = (   0.3635474  -0.4544343   0.1298384), wk =   0.0380952
        k(   47) = (   0.3635474  -0.4544343   0.2596767), wk =   0.0380952
        k(   48) = (   0.3635474  -0.4544343   0.3895151), wk =   0.0380952

     total cpu time spent up to now is      134.9 secs

     Self-consistent Calculation

     iteration #  1     ecut=    40.00 Ry     beta=0.70
     CG style diagonalization
     c_bands:  2 eigenvalues not converged
     c_bands:  1 eigenvalues not converged
     c_bands:  1 eigenvalues not converged
     c_bands:  2 eigenvalues not converged
     c_bands:  1 eigenvalues not converged
     c_bands:  1 eigenvalues not converged
     c_bands:  1 eigenvalues not converged
     c_bands:  4 eigenvalues not converged
     c_bands:  1 eigenvalues not converged
     c_bands:  1 eigenvalues not converged
     c_bands:  1 eigenvalues not converged
     c_bands:  2 eigenvalues not converged
     c_bands:  1 eigenvalues not converged
     c_bands:  1 eigenvalues not converged
     ethr =  1.00E-06,  avg # of iterations = 21.7

     total cpu time spent up to now is      199.9 secs

     total energy              =   -1343.85662443 Ry
     Harris-Foulkes estimate   =   -1361.64033143 Ry
     estimated scf accuracy    <      23.36778867 Ry

     iteration #  2     ecut=    40.00 Ry     beta=0.70
     CG style diagonalization
     ethr =  1.00E-02,  avg # of iterations =  4.0

     total cpu time spent up to now is      211.9 secs

     total energy              =   -1347.79940481 Ry
     Harris-Foulkes estimate   =   -1354.81301949 Ry
     estimated scf accuracy    <      11.40656004 Ry

     iteration #  3     ecut=    40.00 Ry     beta=0.70
     CG style diagonalization
     ethr =  8.51E-03,  avg # of iterations =  3.6

     total cpu time spent up to now is      222.8 secs

     total energy              =   -1350.26234360 Ry
     Harris-Foulkes estimate   =   -1353.72954479 Ry
     estimated scf accuracy    <       9.38738395 Ry

     iteration #  4     ecut=    40.00 Ry     beta=0.70
     CG style diagonalization
     ethr =  7.01E-03,  avg # of iterations =  3.1

     total cpu time spent up to now is      232.9 secs

     total energy              =   -1351.76993618 Ry
     Harris-Foulkes estimate   =   -1351.78985667 Ry
     estimated scf accuracy    <       0.03689760 Ry

     iteration #  5     ecut=    40.00 Ry     beta=0.70
     CG style diagonalization
     c_bands:  1 eigenvalues not converged
     c_bands:  2 eigenvalues not converged
     c_bands:  2 eigenvalues not converged
     c_bands:  1 eigenvalues not converged
     c_bands:  1 eigenvalues not converged
     ethr =  2.75E-05,  avg # of iterations =  4.7

     total cpu time spent up to now is      247.5 secs

     total energy              =   -1351.80610577 Ry
     Harris-Foulkes estimate   =   -1351.83224650 Ry
     estimated scf accuracy    <       0.07309190 Ry

     iteration #  6     ecut=    40.00 Ry     beta=0.70
     CG style diagonalization
     ethr =  2.75E-05,  avg # of iterations =  3.4

     total cpu time spent up to now is      258.7 secs

     total energy              =   -1351.81819886 Ry
     Harris-Foulkes estimate   =   -1351.81830170 Ry
     estimated scf accuracy    <       0.00043684 Ry

     iteration #  7     ecut=    40.00 Ry     beta=0.70
     CG style diagonalization
     c_bands:  1 eigenvalues not converged
     c_bands:  1 eigenvalues not converged
     c_bands:  1 eigenvalues not converged
     ethr =  3.26E-07,  avg # of iterations =  4.2

     total cpu time spent up to now is      272.3 secs

     total energy              =   -1351.81826555 Ry
     Harris-Foulkes estimate   =   -1351.81836489 Ry
     estimated scf accuracy    <       0.00029012 Ry

     iteration #  8     ecut=    40.00 Ry     beta=0.70
     CG style diagonalization
     ethr =  2.17E-07,  avg # of iterations =  3.1

     total cpu time spent up to now is      281.9 secs

     End of self-consistent calculation

          k = 0.0000 0.0000 0.0000 (  2601 PWs)   bands (ev):

   -31.8492 -31.7350 -31.7350 -31.1899 -31.1899 -31.1899 -25.8491 -25.8052
    -6.3368  -6.3368  -6.0325  -4.9401  -4.9401  -4.9401  -4.0644  -4.0644
    -4.0644  -3.8959  -3.8959  -3.8959  -3.6602  -3.6602  -3.6602  -2.7301
    -2.7301  -2.7301  -0.9045  -0.9045  -0.9045  -0.8482  -0.8482  -0.8482
    23.0136  23.0136  23.4862  23.5701  23.5701  23.5701  23.6934  25.2805
    25.4093  25.4093  25.4093  25.5636  25.9700  25.9700  25.9700  26.1862
    26.1862  27.5243  27.5243  28.2937  28.2937  28.2937  29.6472  29.6472
    29.6472  29.7839  29.7839  29.7839  30.1438  30.1438  30.1438  31.2547
    31.2547  31.5391  31.5391  32.6763  32.6763  32.6763  34.1615  34.1615
    34.1615  37.0467  37.0467  37.0467  39.6950  40.1166  40.1170  40.9715

          k = 0.0000 0.0000 0.1298 (  2657 PWs)   bands (ev):

   -31.8443 -31.7452 -31.7117 -31.2571 -31.2255 -31.2255 -25.8498 -25.8305
    -6.3798  -6.3142  -6.0137  -4.9333  -4.9333  -4.8682  -4.1636  -4.1636
    -4.0393  -3.9361  -3.8789  -3.8789  -3.7365  -3.7365  -3.7215  -2.9355
    -2.7492  -2.7492  -0.9632  -0.9070  -0.9070  -0.8808  -0.8434  -0.8434
    22.9215  23.2675  23.4527  23.6817  23.6817  23.7027  23.8724  25.0894
    25.0894  25.2813  25.3743  25.4013  25.7991  26.2191  26.2225  26.2225
    26.3526  27.7296  27.7964  27.8270  27.8270  28.4552  29.1949  29.4799
    29.6544  29.6544  29.9398  29.9398  30.0966  30.4373  30.4373  31.2265
    31.2661  31.4250  32.1323  32.8458  32.8458  32.9410  33.6663  33.6663
    34.1442  35.6566  37.3180  37.3180  39.6112  39.7895  40.2584  41.2122

          k = 0.0000 0.0000 0.2597 (  2677 PWs)   bands (ev):

   -31.8352 -31.7613 -31.6587 -31.3336 -31.2320 -31.2320 -25.8535 -25.8404
    -6.3798  -6.2802  -5.6662  -4.9075  -4.9075  -4.6771  -4.2670  -4.2670
    -4.0924  -3.9068  -3.8273  -3.8273  -3.7798  -3.7798  -3.7618  -3.5287
    -2.7551  -2.7551  -1.0550  -0.9714  -0.8837  -0.8837  -0.8301  -0.8301
    22.7250  23.4864  23.5120  23.9483  23.9483  24.2431  24.3021  24.6606
    24.6606  24.8718  25.2919  25.3892  25.6608  26.4277  26.4277  26.5216
    26.8915  27.5687  27.5687  27.8727  28.1253  28.7877  28.9002  29.2193
    29.2193  29.2239  29.7080  29.7080  30.0106  30.8207  31.0701  31.2129
    31.2206  31.2206  32.7339  32.7339  33.2865  33.2946  33.3791  33.7879
    33.7879  34.0900  37.4884  37.4884  38.4908  39.7288  40.2118  40.4552

          k = 0.0000 0.0000 0.3895 (  2658 PWs)   bands (ev):

   -31.8041 -31.7664 -31.5554 -31.4392 -31.2270 -31.2270 -25.8484 -25.8417
    -6.3601  -6.3175  -5.0214  -4.8841  -4.8841  -4.3933  -4.2987  -4.2987
    -4.2717  -4.1698  -3.8570  -3.8570  -3.8564  -3.8025  -3.7180  -3.7180
    -2.7423  -2.7423  -1.0979  -1.0518  -0.8651  -0.8651  -0.8241  -0.8241
    22.8037  23.2238  23.6891  23.8544  24.1885  24.1885  24.3641  24.3641
    24.8041  25.2603  25.3231  25.3604  26.1524  26.6689  26.6689  26.8362
    27.1647  27.3665  27.3665  27.4852  28.5739  28.8521  28.8521  28.9503
    29.1000  29.4962  29.5788  29.5788  29.9157  30.5039  30.5904  30.7910
    31.6738  31.6738  32.0357  32.0731  32.0731  33.2790  33.7382  33.9685
    34.9431  34.9431  37.3177  37.3178  38.1044  38.8512  40.3050  40.6802

          k = 0.0000 0.1515 0.0000 (  2653 PWs)   bands (ev):

   -31.8387 -31.7421 -31.7035 -31.2671 -31.2260 -31.2260 -25.8496 -25.8301
    -6.3800  -6.2979  -5.9828  -4.9249  -4.9249  -4.8314  -4.1814  -4.1814
    -4.0388  -3.9322  -3.8621  -3.8621  -3.7437  -3.7437  -3.7264  -2.9988
    -2.7451  -2.7451  -0.9757  -0.9028  -0.9028  -0.8902  -0.8405  -0.8405
    22.8862  23.3282  23.4448  23.7195  23.7195  23.7787  23.9552  25.0153
    25.0153  25.2217  25.2821  25.4002  25.8175  26.2540  26.2718  26.2718
    26.4114  27.7464  27.7464  27.8069  27.8449  28.5123  29.0800  29.4330
    29.6272  29.6272  29.8858  29.8858  30.0825  30.5865  30.5865  31.1921
    31.2146  31.3828  32.3495  32.9344  32.9344  33.0135  33.5274  33.5274
    34.1383  35.2897  37.3775  37.3775  39.4460  39.8535  40.2044  41.0171

          k = 0.0000 0.1515 0.1298 (  2662 PWs)   bands (ev):

   -31.8423 -31.7283 -31.7014 -31.2666 -31.2571 -31.2279 -25.8501 -25.8364
    -6.3582  -6.2158  -5.9656  -4.9048  -4.8597  -4.8324  -4.2478  -4.2121
    -4.0254  -3.9345  -3.8632  -3.8186  -3.7956  -3.7651  -3.6957  -3.0212
    -2.9539  -2.7426  -0.9696  -0.9410  -0.8907  -0.8869  -0.8729  -0.8327
    23.0210  23.2805  23.6426  23.6673  23.8377  23.9525  24.0974  24.7235
    24.8928  25.1462  25.2495  25.3577  25.9589  26.2282  26.3250  26.3506
    26.5807  27.2339  27.5893  27.9414  28.1132  28.3511  29.1008  29.3687
    29.6853  29.8572  29.8663  29.9693  30.2632  30.2980  30.4473  31.2550
    31.3165  31.7027  32.2438  33.0235  33.1169  33.1424  33.2103  33.4590
    33.8749  35.3195  36.2352  37.6525  39.4383  39.9929  40.2385  41.0709

          k = 0.0000 0.1515 0.2597 (  2666 PWs)   bands (ev):

   -31.8193 -31.7343 -31.6494 -31.3357 -31.2685 -31.2297 -25.8525 -25.8407
    -6.3600  -6.1215  -5.6797  -4.8632  -4.8182  -4.6718  -4.3278  -4.2581
    -4.0318  -3.9696  -3.8486  -3.8117  -3.7941  -3.7626  -3.7010  -3.5035
    -3.0259  -2.7392  -1.0376  -0.9577  -0.9306  -0.8785  -0.8635  -0.8259
    22.9154  23.4192  23.7279  23.9711  24.0980  24.2101  24.4662  24.5041
    24.6955  24.9610  25.1407  25.4713  25.7152  26.2102  26.4907  26.7833
    26.8624  27.2145  27.3139  28.0947  28.1742  28.7028  28.8732  29.0801
    29.1474  29.5470  29.7383  29.9212  30.1517  30.6460  30.7304  31.1051
    31.6275  31.8254  32.3907  32.7371  32.9872  33.2650  33.5891  33.6839
    33.7716  34.0665  36.0076  37.9396  38.5919  39.1780  40.2561  40.5376

          k = 0.0000 0.1515 0.3895 (  2658 PWs)   bands (ev):

   -31.7837 -31.7491 -31.5550 -31.4380 -31.2644 -31.2336 -25.8485 -25.8453
    -6.3674  -6.1342  -5.0429  -4.8292  -4.7908  -4.4256  -4.3648  -4.3066
    -4.2209  -4.1124  -4.0281  -3.8722  -3.7966  -3.7589  -3.7231  -3.7191
    -3.0231  -2.7237  -1.0850  -1.0394  -0.9067  -0.8675  -0.8436  -0.8155
    22.9516  23.3058  23.8352  23.9174  24.0503  24.1570  24.4287  24.4555
    25.0213  25.2268  25.2997  25.5423  26.0145  26.4127  26.5715  26.9631
    26.9750  27.3274  27.4745  27.9259  28.2852  28.4924  28.5072  29.0977
    29.2619  29.3486  29.7185  29.9770  30.0752  30.5484  30.6171  30.8681
    31.2822  31.8952  32.0980  32.2714  32.4642  33.3763  33.4937  33.6363
    34.4477  35.0268  36.1286  37.5732  37.9096  38.3908  39.8304  40.6870

          k = 0.0000 0.3030 0.0000 (  2677 PWs)   bands (ev):

   -31.8278 -31.7679 -31.6256 -31.3785 -31.2267 -31.2267 -25.8524 -25.8428
    -6.3768  -6.2837  -5.4971  -4.9016  -4.9016  -4.5863  -4.2870  -4.2870
    -4.1305  -3.8911  -3.8452  -3.8452  -3.7670  -3.7573  -3.7573  -3.7268
    -2.7637  -2.7637  -1.0805  -1.0000  -0.8759  -0.8759  -0.8299  -0.8299
    22.7089  23.4656  23.5676  24.0404  24.0404  24.0969  24.4524  24.5419
    24.5419  25.2437  25.3006  25.3818  25.5382  26.4802  26.4802  26.6274
    27.1306  27.5453  27.5453  27.8824  28.0491  28.8009  29.0296  29.0296
    29.0914  29.1936  29.6660  29.6660  29.9860  30.6908  30.9089  31.3533
    31.4092  31.4092  32.4480  32.4648  32.4648  33.4814  33.5110  34.0589
    34.2106  34.2106  37.4496  37.4496  38.2039  39.4644  40.1168  41.1301

          k = 0.0000 0.3030 0.1298 (  2660 PWs)   bands (ev):

   -31.8066 -31.7407 -31.6215 -31.3667 -31.2590 -31.2309 -25.8513 -25.8403
    -6.3628  -6.1793  -5.4875  -4.8588  -4.8295  -4.5775  -4.3307  -4.2745
    -4.0584  -3.9688  -3.8554  -3.8171  -3.7878  -3.7414  -3.7162  -3.7110
    -2.9479  -2.7290  -1.0654  -0.9860  -0.9070  -0.8667  -0.8581  -0.8224
    22.8494  23.4735  23.8142  23.8773  24.0915  24.1339  24.4129  24.5284
    24.7255  25.1908  25.2770  25.4559  25.5808  26.2705  26.5540  26.8117
    26.9246  27.3698  27.4335  27.9028  28.2647  28.7255  28.7395  29.0497
    29.2447  29.5516  29.5690  29.7727  30.0377  30.6409  30.9227  31.0351
    31.6349  31.8035  32.0808  32.5284  32.8404  33.3877  33.4838  33.7431
    33.9647  34.3677  36.3157  37.8376  38.2884  38.9955  40.1294  40.7648

          k = 0.0000 0.3030 0.2597 (  2658 PWs)   bands (ev):

   -31.7801 -31.6966 -31.6136 -31.3703 -31.3318 -31.2363 -25.8503 -25.8457
    -6.3783  -5.7590  -5.5016  -4.7813  -4.6640  -4.5910  -4.4191  -4.2457
    -4.1143  -3.9744  -3.8797  -3.8511  -3.7658  -3.7262  -3.7163  -3.6836
    -3.4857  -2.7264  -1.0471  -0.9898  -0.9723  -0.9353  -0.8336  -0.8130
    23.0773  23.3590  23.6187  23.8645  24.1378  24.3054  24.6437  24.9387
    25.1090  25.1627  25.3624  25.5896  25.7996  25.8275  26.7960  26.8565
    26.9959  27.2807  27.5278  27.6448  28.3072  28.3227  28.4459  28.6637
    28.9460  29.0764  29.9169  30.3501  30.5415  30.6485  31.1134  31.2121
    31.6712  32.1766  32.4352  32.4716  32.6671  33.2013  33.4289  33.4789
    33.5386  34.6546  34.6928  37.2892  38.1996  38.5480  39.4848  40.9190

          k = 0.0000 0.3030 0.3895 (  2654 PWs)   bands (ev):

   -31.7702 -31.6584 -31.5578 -31.4412 -31.3635 -31.2318 -25.8499 -25.8477
    -6.3929  -5.5502  -5.0671  -4.7078  -4.6122  -4.4608  -4.4590  -4.2744
    -4.2482  -4.2270  -4.0033  -3.8884  -3.8202  -3.7232  -3.7009  -3.7002
    -3.6809  -2.7350  -1.0741  -1.0117  -0.9965  -0.9558  -0.8168  -0.8037
    23.0935  23.2870  23.5673  23.6186  24.1557  24.3396  25.0294  25.1868
    25.2708  25.3559  25.4990  25.8350  26.0921  26.1965  26.6142  26.7693
    27.0985  27.3611  27.5687  27.8201  27.8486  28.0569  28.1451  28.3010
    28.7041  29.2312  30.3103  30.3612  30.6161  30.8520  31.0915  31.1790
    31.3444  32.0439  32.4218  32.4371  32.5185  33.1173  33.1176  33.7590
    33.9381  34.1977  35.2201  35.8482  37.7102  38.7884  38.9740  40.2643

          k = 0.0000-0.4544 0.0000 (  2666 PWs)   bands (ev):

   -31.7887 -31.7887 -31.5003 -31.5003 -31.2280 -31.2280 -25.8464 -25.8464
    -6.3474  -6.3474  -4.8816  -4.8816  -4.6508  -4.6508  -4.3061  -4.3061
    -4.2876  -4.2876  -3.8700  -3.8700  -3.8314  -3.8314  -3.7107  -3.7107
    -2.7431  -2.7431  -1.0901  -1.0901  -0.8648  -0.8648  -0.8270  -0.8270
    22.9817  22.9817  23.7712  23.7712  24.2600  24.2600  24.2853  24.2853
    25.0360  25.0360  25.3423  25.3423  26.7906  26.7906  26.8483  26.8483
    27.0101  27.0101  27.2278  27.2278  28.8434  28.8434  28.9660  28.9660
    29.5454  29.5454  29.6529  29.6529  29.7624  29.7624  30.4697  30.4697
    31.7441  31.7441  31.9692  31.9692  32.7086  32.7086  33.8694  33.8694
    35.1566  35.1566  37.2684  37.2684  38.4055  38.4055  40.5136  40.5128

          k = 0.0000-0.4544 0.1298 (  2666 PWs)   bands (ev):

   -31.7840 -31.7656 -31.5028 -31.4988 -31.2558 -31.2307 -25.8482 -25.8482
    -6.3593  -6.1933  -4.8463  -4.8380  -4.6709  -4.6290  -4.3628  -4.3545
    -4.2765  -4.1937  -4.0108  -3.8791  -3.8045  -3.7497  -3.7372  -3.7174
    -2.9557  -2.7348  -1.0848  -1.0706  -0.8913  -0.8539  -0.8447  -0.8146
    23.0520  23.1013  23.8227  24.0143  24.0591  24.0821  24.3735  24.4247
    25.1289  25.1329  25.2541  25.4967  26.3277  26.5963  26.7134  26.7878
    27.1124  27.1293  27.5059  27.5163  28.3297  28.6307  29.0095  29.3218
    29.3979  29.5120  29.5758  29.5975  29.9277  30.0449  30.4884  30.7106
    31.6635  31.7448  31.9621  32.0843  32.8037  32.9887  33.6114  33.6693
    34.7648  35.1957  36.5033  37.5204  37.7396  38.3642  39.9049  40.5249

          k = 0.0000-0.4544 0.2597 (  2658 PWs)   bands (ev):

   -31.7696 -31.6887 -31.5045 -31.4988 -31.3312 -31.2360 -25.8492 -25.8490
    -6.3920  -5.7484  -4.7940  -4.7415  -4.6841  -4.5328  -4.4424  -4.3925
    -4.2518  -4.2048  -4.0350  -3.8902  -3.7940  -3.7350  -3.7138  -3.7023
    -3.4873  -2.7366  -1.0776  -1.0328  -0.9743  -0.9263  -0.8246  -0.8061
    23.0870  23.2989  23.6494  23.6530  24.0354  24.3545  24.8920  25.0250
    25.1974  25.2636  25.3967  25.9314  26.0858  26.3280  26.5288  26.8112
    26.9482  27.4408  27.6694  27.8024  27.8128  28.0816  28.4562  28.7057
    28.8885  29.2573  29.5275  30.5084  30.7201  30.7654  30.7935  30.9940
    31.3833  31.9484  32.1543  32.5327  32.5452  33.2104  33.2523  33.5905
    34.0226  34.8985  35.2867  35.9904  37.9024  38.6991  38.9329  40.3311

          k = 0.0000-0.4544 0.3895 (  2662 PWs)   bands (ev):

   -31.7733 -31.5952 -31.5096 -31.5060 -31.4260 -31.2300 -25.8519 -25.8517
    -6.3999  -5.1093  -4.7681  -4.7008  -4.5874  -4.4948  -4.4709  -4.4104
    -4.4073  -4.2869  -4.2538  -3.9148  -3.8781  -3.8652  -3.6903  -3.6862
    -3.6717  -2.7440  -1.0988  -1.0281  -1.0152  -0.9824  -0.7998  -0.7992
    23.0831  23.1223  23.3524  23.6910  24.4380  24.4676  25.0099  25.3610
    25.4593  25.4722  25.8990  25.9423  26.1726  26.5256  26.6482  26.8745
    27.0556  27.0821  27.3014  27.3922  27.7163  28.0681  28.1388  28.2433
    29.0118  29.1074  30.0861  30.1118  30.9039  31.0291  31.0741  31.1545
    31.8296  31.9579  32.1014  32.3061  32.3704  32.9868  33.2583  33.6919
    34.1937  34.3604  34.7151  35.4645  37.0200  38.3319  39.4799  39.7359

          k = 0.1818 0.0000 0.0000 (  2661 PWs)   bands (ev):

   -31.8458 -31.7455 -31.6929 -31.2831 -31.2264 -31.2264 -25.8492 -25.8358
    -6.3799  -6.2819  -5.9210  -4.9197  -4.9197  -4.7904  -4.2143  -4.2143
    -4.0621  -3.9256  -3.8456  -3.8456  -3.7534  -3.7534  -3.7341  -3.1284
    -2.7533  -2.7533  -0.9980  -0.9067  -0.8975  -0.8975  -0.8370  -0.8370
    22.8330  23.3987  23.4478  23.7788  23.7788  23.8999  24.1012  24.9110
    24.9110  25.0089  25.2837  25.3978  25.8077  26.3217  26.3293  26.3293
    26.5135  27.6596  27.6596  27.8901  27.9254  28.6048  28.9449  29.3637
    29.5573  29.5573  29.8141  29.8141  30.0617  30.7867  30.7867  31.0858
    31.1954  31.3119  32.6500  33.0795  33.0795  33.1177  33.3436  33.3436
    34.1279  34.7511  37.4407  37.4407  39.1829  39.9719  40.0982  40.7296

          k = 0.1818 0.0000 0.1298 (  2667 PWs)   bands (ev):

   -31.8385 -31.7323 -31.6919 -31.2825 -31.2572 -31.2320 -25.8527 -25.8368
    -6.3599  -6.1910  -5.9138  -4.8977  -4.8551  -4.7963  -4.2729  -4.2317
    -4.0222  -3.9369  -3.8553  -3.8148  -3.8055  -3.7707  -3.6993  -3.1445
    -2.9584  -2.7419  -0.9869  -0.9362  -0.9087  -0.8850  -0.8734  -0.8322
    22.9820  23.3200  23.6679  23.7405  23.8989  24.0701  24.2143  24.6359
    24.7804  25.1109  25.1423  25.3788  25.9321  26.2237  26.3929  26.4429
    26.6623  27.1682  27.4915  28.0124  28.1711  28.4363  29.0126  29.3075
    29.5534  29.7988  29.8153  29.9193  30.2187  30.4638  30.5615  31.2041
    31.3631  31.7059  32.4290  32.9418  33.0808  33.1362  33.3601  33.4615
    33.8520  34.8686  36.2379  37.7308  39.2442  40.0180  40.1108  40.8076

          k = 0.1818 0.0000 0.2597 (  2659 PWs)   bands (ev):

   -31.8077 -31.7240 -31.6460 -31.3338 -31.2833 -31.2312 -25.8519 -25.8401
    -6.3621  -6.0367  -5.6760  -4.8472  -4.7818  -4.6690  -4.3508  -4.2441
    -4.0039  -3.9893  -3.8450  -3.8057  -3.8027  -3.7553  -3.6950  -3.5031
    -3.1350  -2.7336  -1.0313  -0.9551  -0.9453  -0.8927  -0.8544  -0.8245
    22.9762  23.3804  23.6903  24.1237  24.1248  24.2382  24.4173  24.6057
    24.6753  24.9670  25.1196  25.5338  25.6985  26.1271  26.5320  26.8225
    26.9344  27.1727  27.2715  28.0717  28.2132  28.6731  28.7749  29.0357
    29.0944  29.3653  29.9113  30.0631  30.2338  30.6031  30.6926  31.1132
    31.7760  31.9289  32.3819  32.7107  32.8822  33.2409  33.5635  33.6143
    33.7710  34.1434  35.6045  38.0829  38.5145  38.8786  40.1734  40.5660

          k = 0.1818 0.0000 0.3895 (  2660 PWs)   bands (ev):

   -31.7812 -31.7361 -31.5555 -31.4406 -31.2802 -31.2348 -25.8491 -25.8461
    -6.3734  -6.0483  -5.0538  -4.8084  -4.7595  -4.4363  -4.3852  -4.3008
    -4.2190  -4.0933  -4.0711  -3.8795  -3.7848  -3.7680  -3.7187  -3.7058
    -3.1398  -2.7222  -1.0786  -1.0353  -0.9289  -0.8841  -0.8384  -0.8146
    22.9956  23.3229  23.8004  23.9035  23.9539  24.3082  24.4737  24.5448
    25.0862  25.2177  25.3145  25.6294  25.9608  26.3642  26.5586  26.9149
    26.9656  27.3905  27.5621  27.9893  28.1350  28.3414  28.4530  29.0178
    29.1019  29.2224  29.9456  30.1688  30.2309  30.5570  30.5959  30.9290
    31.2626  31.9407  32.1068  32.3802  32.5423  33.3768  33.4117  33.5550
    34.2703  35.0563  35.7312  37.2582  38.1190  38.2972  39.6187  40.6616

          k = 0.1818 0.1515 0.0000 (  2672 PWs)   bands (ev):

   -31.8392 -31.7314 -31.6857 -31.2862 -31.2713 -31.2321 -25.8549 -25.8372
    -6.3639  -6.1521  -5.9162  -4.8876  -4.8331  -4.7953  -4.2895  -4.2385
    -4.0127  -3.9459  -3.8538  -3.8163  -3.8052  -3.7912  -3.6972  -3.1463
    -3.0258  -2.7454  -0.9900  -0.9468  -0.9074  -0.8879  -0.8805  -0.8372
    23.0138  23.2915  23.6659  23.8418  23.9387  24.1108  24.2708  24.5978
[...]

          k = 0.1696-0.4240 0.0000 (  4346 PWs)   bands (ev):

   -38.1646 -38.1423 -38.0360 -38.0348 -37.9349 -37.9102 -32.5989 -32.5989
   -12.0220 -11.8412 -11.0766 -11.0547 -11.0016 -10.9693 -10.8290 -10.7802
   -10.7786 -10.6898 -10.6687 -10.5844 -10.5376 -10.5269 -10.5080 -10.5030
   -10.1993  -9.9907  -7.7502  -7.7425  -7.7045  -7.6875  -7.6810  -7.6678
    18.0193  18.0869  18.6346  18.7340  18.8178  18.8659  19.0668  19.3018
    19.4023  19.4993  19.8974  20.1516  20.2866  20.5995  20.7020  20.8365
    21.1839  21.2897  21.3619  21.6093  22.0471  22.0562  22.3223  22.5291
    22.6679  22.7252  22.8451  23.3608  23.5418  23.5515  23.8657  24.0162
    24.5176  24.6181  24.7753  25.0822  25.4253  25.6632  25.8425  25.9398
    26.5464  27.1264  27.8418  28.5014  29.6607  29.7091  31.1755  31.9388

          k = 0.1696-0.4240 0.1211 (  4346 PWs)   bands (ev):

   -38.1528 -38.1419 -38.0361 -38.0354 -37.9347 -37.9227 -32.5992 -32.5991
   -11.9306 -11.8465 -11.0749 -11.0670 -10.9718 -10.9631 -10.8272 -10.8142
   -10.7339 -10.7135 -10.6391 -10.6130 -10.5344 -10.5188 -10.5147 -10.5076
   -10.2033 -10.1029  -7.7445  -7.7409  -7.7021  -7.6905  -7.6878  -7.6778
    18.1881  18.1921  18.6923  18.8563  18.8565  19.0278  19.1088  19.1340
    19.3451  19.3804  19.9241  20.0095  20.3253  20.4194  20.6371  20.7281
    21.2783  21.3721  21.3897  21.4584  22.0490  22.2411  22.5355  22.6325
    22.6934  22.8086  23.0329  23.2379  23.3212  23.4470  23.9764  24.0320
    24.4788  24.5435  24.9335  25.0893  25.5644  25.6651  25.6781  25.7326
    26.5540  26.8076  28.1958  28.4708  28.9994  29.0344  31.4325  31.6946

          k = 0.1696-0.4240 0.2423 (  4360 PWs)   bands (ev):

   -38.1404 -38.1192 -38.0373 -38.0363 -37.9586 -37.9356 -32.5997 -32.5997
   -11.8540 -11.6760 -11.0863 -11.0784 -10.9334 -10.9199 -10.8416 -10.8244
   -10.7235 -10.7162 -10.6411 -10.6226 -10.5573 -10.5320 -10.5181 -10.5109
   -10.3995 -10.2016  -7.7418  -7.7353  -7.7129  -7.7023  -7.6939  -7.6861
    18.3440  18.4222  18.7353  18.8179  19.1042  19.1381  19.1494  19.3145
    19.4432  19.5945  19.8559  19.8948  20.2668  20.2741  20.4208  20.6470
    21.1740  21.4161  21.5561  21.6444  21.6585  21.9091  22.4518  22.6146
    22.7995  22.8818  23.1728  23.3068  23.6185  23.7366  23.9647  24.3572
    24.5248  24.6074  24.7440  25.0395  25.3840  25.5468  25.6814  25.7863
    26.2807  26.5364  27.6691  27.7586  28.4740  28.9449  30.9482  30.9540

          k = 0.1696-0.4240 0.3634 (  4358 PWs)   bands (ev):

   -38.1390 -38.0711 -38.0383 -38.0366 -38.0070 -37.9353 -32.6001 -32.6000
   -11.8574 -11.3005 -11.0907 -11.0777 -10.9075 -10.8888 -10.8839 -10.7993
   -10.7888 -10.7418 -10.7355 -10.6290 -10.6017 -10.5934 -10.5181 -10.5173
   -10.5116 -10.2017  -7.7459  -7.7275  -7.7269  -7.7206  -7.6865  -7.6854
    18.3851  18.4131  18.5491  18.9007  19.1703  19.2505  19.3743  19.5991
    19.6355  19.9628  20.0051  20.0530  20.1209  20.1726  20.2308  20.8186
    20.9009  21.2839  21.5640  21.6268  21.6789  21.8934  22.2769  22.5058
    22.7561  22.9677  23.0002  23.2458  23.2886  24.0268  24.1092  24.2980
    24.3876  24.6429  24.8419  25.3778  25.4733  25.6412  25.8316  26.0877
    26.1797  26.4234  26.7634  26.7940  28.2154  29.5243  29.8486  30.3567

          k = 0.3392 0.0000 0.0000 (  4348 PWs)   bands (ev):

   -38.1750 -38.1584 -38.0713 -37.9973 -37.9096 -37.9096 -32.5991 -32.5978
   -12.0252 -11.9922 -11.3430 -11.0404 -11.0404 -10.8646 -10.7662 -10.7416
   -10.7416 -10.7083 -10.5785 -10.5670 -10.5670 -10.5384 -10.5139 -10.5139
    -9.9991  -9.9991  -7.7521  -7.7372  -7.6893  -7.6892  -7.6706  -7.6706
    17.7496  18.0546  18.4378  18.5919  18.8687  18.9648  18.9648  19.2345
    19.2345  19.5717  19.9292  19.9522  20.0083  20.6616  20.6616  20.9386
    21.2395  21.3154  21.5279  21.5280  21.9489  22.4213  22.4766  22.5820
    22.5820  22.9350  22.9350  22.9989  23.3578  23.8211  23.9274  24.0323
    24.5297  24.5297  24.7529  24.9667  24.9667  25.8594  25.9943  26.2004
    26.8238  26.8238  29.0804  29.0804  29.6406  30.2146  31.8140  32.3576

          k = 0.3392 0.0000 0.1211 (  4343 PWs)   bands (ev):

   -38.1700 -38.1496 -38.0716 -37.9971 -37.9230 -37.9100 -32.5991 -32.5981
   -12.0195 -11.9217 -11.3487 -11.0225 -11.0136 -10.8672 -10.7747 -10.7621
   -10.7287 -10.6930 -10.6243 -10.5710 -10.5475 -10.5277 -10.5168 -10.5075
   -10.0989  -9.9930  -7.7492  -7.7353  -7.6989  -7.6858  -7.6794  -7.6694
    17.8580  18.1611  18.5683  18.6616  18.7933  18.9388  18.9635  19.1853
    19.2744  19.6567  19.8654  19.9994  20.0525  20.5370  20.7767  20.9183
    21.0106  21.3446  21.4283  21.7841  21.9001  22.1598  22.3554  22.6014
    22.6781  23.0115  23.0318  23.1296  23.3964  23.8211  23.8957  24.0480
    24.2606  24.6669  25.0020  25.0459  25.0516  25.8906  25.8932  26.0331
    26.5639  26.8803  28.1469  29.4153  29.4202  29.9043  31.5347  32.3126

          k = 0.3392 0.0000 0.2423 (  4354 PWs)   bands (ev):

   -38.1652 -38.1207 -38.0717 -37.9983 -37.9582 -37.9107 -32.5995 -32.5988
   -12.0269 -11.6731 -11.3569 -10.9767 -10.9569 -10.8797 -10.8049 -10.7697
   -10.7333 -10.7036 -10.6555 -10.5911 -10.5614 -10.5181 -10.5055 -10.4898
   -10.3999  -9.9906  -7.7468  -7.7300  -7.7198  -7.7047  -7.6771  -7.6678
    18.0445  18.2502  18.4801  18.6716  18.8044  18.9831  19.3187  19.4162
    19.4689  19.7417  19.8874  19.9932  20.2584  20.3435  20.7022  21.0222
    21.0775  21.4037  21.4289  21.4765  21.8630  21.9229  21.9759  22.3198
    22.4618  22.5723  23.4449  23.6449  23.6925  23.8696  23.9256  24.1620
    24.3659  24.8659  24.9715  25.1620  25.2818  25.6922  25.7323  25.9841
    26.2127  26.7382  27.0123  28.2613  29.5160  30.1316  30.8496  31.8062

          k = 0.3392 0.0000 0.3634 (  4366 PWs)   bands (ev):

   -38.1630 -38.0873 -38.0593 -38.0125 -37.9946 -37.9113 -32.5997 -32.5996
   -12.0360 -11.3813 -11.2774 -10.9281 -10.9147 -10.8865 -10.8275 -10.8183
   -10.7804 -10.7620 -10.7427 -10.6209 -10.6004 -10.5938 -10.5023 -10.4949
   -10.4866  -9.9906  -7.7548  -7.7311  -7.7295  -7.7193  -7.6700  -7.6663
    18.1523  18.2418  18.3270  18.4518  18.9951  19.0201  19.5338  19.8192
    19.8286  19.9765  20.0174  20.0902  20.2355  20.6730  20.6761  20.8783
    21.0349  21.2849  21.4368  21.5555  21.6445  21.6690  21.8286  21.8914
    22.0257  22.9997  23.2957  23.4118  23.6916  24.0042  24.0992  24.1928
    24.6212  24.8746  24.9488  25.1122  25.3294  25.5273  25.5729  26.1584
    26.2806  26.3848  27.1756  27.2265  28.9992  30.3668  30.7042  31.2569

          k = 0.3392 0.1413 0.0000 (  4351 PWs)   bands (ev):

   -38.1691 -38.1464 -38.0717 -37.9977 -37.9275 -37.9105 -32.5993 -32.5982
   -12.0222 -11.8918 -11.3523 -11.0178 -11.0056 -10.8695 -10.7767 -10.7704
   -10.7286 -10.6872 -10.6382 -10.5755 -10.5428 -10.5324 -10.5149 -10.5066
   -10.1386  -9.9922  -7.7489  -7.7352  -7.7021  -7.6848  -7.6839  -7.6699
    17.8891  18.1824  18.6128  18.7060  18.7486  18.9279  18.9609  19.2096
    19.2865  19.6700  19.8594  19.9966  20.0894  20.5096  20.7302  20.9785
    20.9896  21.3691  21.4018  21.8095  21.8978  22.0750  22.2893  22.5676
    22.6316  22.9636  23.1546  23.2221  23.4352  23.8302  23.8563  24.0726
    24.2306  24.7081  25.0043  25.0828  25.1003  25.8594  25.8937  25.9932
    26.4816  26.8969  27.9074  29.2610  29.5262  29.8461  31.4322  32.2502

          k = 0.3392 0.1413 0.1211 (  4352 PWs)   bands (ev):

   -38.1594 -38.1433 -38.0725 -37.9979 -37.9278 -37.9232 -32.5996 -32.5984
   -11.9352 -11.8917 -11.3555 -10.9977 -10.9960 -10.8693 -10.8136 -10.7356
   -10.7225 -10.6987 -10.6286 -10.6062 -10.5317 -10.5263 -10.5221 -10.5071
   -10.1408 -10.1024  -7.7442  -7.7340  -7.6985  -7.6936  -7.6835  -7.6794
    18.0283  18.3409  18.6518  18.7314  18.8530  18.9411  19.0396  19.1251
    19.2651  19.5449  19.7841  20.0268  20.1506  20.4654  20.5704  20.9027
    21.0523  21.1222  21.6371  21.6855  21.8546  22.3161  22.4414  22.6587
    22.8161  22.9622  23.1476  23.1863  23.3009  23.6998  23.8662  24.1436
    24.3151  24.5613  24.8521  25.2799  25.3668  25.7285  25.7598  25.9147
    26.4916  26.6430  28.1337  28.5042  29.3724  29.5590  31.7004  31.8090

          k = 0.3392 0.1413 0.2423 (  4354 PWs)   bands (ev):

   -38.1494 -38.1189 -38.0727 -37.9986 -37.9581 -37.9280 -32.5999 -32.5991
   -11.9047 -11.6743 -11.3663 -10.9598 -10.9432 -10.8732 -10.8370 -10.7326
   -10.7220 -10.7022 -10.6470 -10.6041 -10.5573 -10.5252 -10.5177 -10.5038
   -10.3986 -10.1399  -7.7396  -7.7286  -7.7153  -7.7041  -7.6893  -7.6820
    18.2583  18.4673  18.6366  18.7183  19.0121  19.0724  19.1906  19.3078
    19.4027  19.6033  19.7926  20.0451  20.1474  20.2673  20.3509  20.8401
    21.1523  21.1944  21.4406  21.7180  21.8054  22.1244  22.1823  22.5856
    22.8036  22.9334  23.2273  23.5510  23.5889  23.7492  24.0978  24.2014
    24.3804  24.6302  24.7160  25.1106  25.4715  25.6745  25.7063  25.8225
    26.2076  26.5843  27.1034  28.4250  28.4832  29.6458  30.9134  31.3545

          k = 0.3392 0.1413 0.3634 (  4360 PWs)   bands (ev):

   -38.1464 -38.0848 -38.0603 -38.0120 -37.9956 -37.9284 -32.6000 -32.5998
   -11.9112 -11.3843 -11.2871 -10.9236 -10.9046 -10.8858 -10.8542 -10.7914
   -10.7604 -10.7347 -10.7231 -10.6255 -10.5963 -10.5912 -10.5133 -10.5125
   -10.5056 -10.1373  -7.7465  -7.7275  -7.7268  -7.7188  -7.6822  -7.6809
    18.3298  18.3902  18.5473  18.6891  19.1093  19.1394  19.3880  19.5587
    19.6832  19.9409  19.9800  20.0476  20.1559  20.2366  20.2699  20.9432
    21.0513  21.1577  21.3642  21.5923  21.7154  21.8724  22.3022  22.3670
    22.7069  22.9962  23.1109  23.2861  23.4888  24.0635  24.2384  24.2895
    24.4372  24.4827  24.5686  25.3520  25.4926  25.6303  25.7860  25.9889
    26.2785  26.4454  26.6600  27.3307  28.4616  29.8432  30.2449  30.6603

          k = 0.3392 0.2827 0.0000 (  4348 PWs)   bands (ev):

   -38.1638 -38.1078 -38.0704 -37.9989 -37.9724 -37.9106 -32.5996 -32.5989
   -12.0302 -11.5533 -11.3570 -10.9588 -10.9297 -10.8836 -10.8136 -10.7643
   -10.7366 -10.7300 -10.6496 -10.5962 -10.5716 -10.5193 -10.5093 -10.5018
   -10.4881  -9.9902  -7.7479  -7.7279  -7.7247  -7.7115  -7.6742  -7.6674
    18.0927  18.2684  18.3963  18.5784  18.8797  18.9772  19.4942  19.5985
    19.6333  19.7598  19.9166  19.9993  20.1761  20.4673  20.7165  21.0329
    21.1317  21.1966  21.4488  21.5077  21.7689  21.8630  21.8680  22.1354
    22.2722  22.7670  23.3937  23.6065  23.8070  23.9790  24.0701  24.1825
    24.2371  24.9029  25.0903  25.1293  25.3014  25.6303  25.6385  26.0892
    26.2064  26.3953  27.0782  27.8568  29.3430  30.3639  30.6448  31.5983

          k = 0.3392 0.2827 0.1211 (  4351 PWs)   bands (ev):

   -38.1520 -38.1059 -38.0714 -37.9991 -37.9733 -37.9235 -32.5999 -32.5991
   -11.9388 -11.5597 -11.3653 -10.9466 -10.9244 -10.8803 -10.8359 -10.7371
   -10.7306 -10.7215 -10.6469 -10.6044 -10.5704 -10.5296 -10.5115 -10.5033
   -10.4984 -10.0996  -7.7421  -7.7268  -7.7221  -7.7118  -7.6823  -7.6780
    18.2599  18.4142  18.5703  18.6172  19.0043  19.0634  19.3569  19.4041
    19.5545  19.7851  19.8919  20.0109  20.1331  20.3070  20.3140  20.9600
    21.0878  21.1918  21.3951  21.6141  21.7445  22.1055  22.1979  22.3896
    22.6336  22.8363  23.1804  23.5597  23.7703  23.9718  24.1232  24.2053
    24.3009  24.5868  24.7147  25.2001  25.4588  25.6388  25.7872  25.8535
    26.2120  26.6304  26.7624  27.9901  28.6870  29.8918  30.7904  31.0681

          k = 0.3392 0.2827 0.2423 (  4365 PWs)   bands (ev):

   -38.1202 -38.1018 -38.0740 -37.9995 -37.9745 -37.9590 -32.6003 -32.5999
   -11.6848 -11.5659 -11.3795 -10.9194 -10.9088 -10.8734 -10.8557 -10.7360
   -10.7103 -10.6830 -10.6536 -10.6116 -10.5679 -10.5572 -10.5286 -10.5265
   -10.5083 -10.3963  -7.7309  -7.7245  -7.7157  -7.7113  -7.7063  -7.7023
    18.5625  18.6420  18.7834  18.9185  19.0349  19.1297  19.3796  19.4624
    19.5744  19.6402  19.8401  19.9382  20.0563  20.1450  20.1856  20.6305
    20.9701  21.2013  21.3878  21.6058  21.7238  21.9248  22.1898  22.5066
    23.1999  23.4228  23.4285  23.6421  23.6880  23.9367  24.2743  24.3341
    24.4024  24.4431  24.5602  24.9666  25.1821  25.4038  25.6650  26.0251
    26.0381  26.3746  26.9402  27.5217  28.3391  28.8926  29.6731  30.6468

          k = 0.3392 0.2827 0.3634 (  4374 PWs)   bands (ev):

   -38.1021 -38.0798 -38.0644 -38.0113 -37.9983 -37.9754 -32.6007 -32.6004
   -11.5757 -11.3911 -11.3030 -10.9151 -10.9027 -10.8903 -10.8590 -10.7892
   -10.7282 -10.7008 -10.6763 -10.6368 -10.5976 -10.5766 -10.5617 -10.5491
   -10.5468 -10.5098  -7.7293  -7.7235  -7.7192  -7.7188  -7.7106  -7.7100
    18.6869  18.6918  18.8366  18.9870  19.1240  19.1483  19.4972  19.6511
    19.6981  19.7310  19.8326  19.8828  20.0700  20.2017  20.2538  20.7089
    20.9487  21.1839  21.1961  21.3826  21.4910  22.0104  22.3568  22.4914
    23.0056  23.1731  23.3740  23.5227  23.7620  24.0644  24.2977  24.3081
    24.5415  24.7428  24.8291  24.9910  25.1168  25.6185  25.7699  25.9824
    26.0603  26.2740  26.5978  27.3368  27.6997  28.4404  28.8353  29.6303

          k = 0.3392-0.4240 0.0000 (  4372 PWs)   bands (ev):

   -38.1631 -38.0842 -38.0388 -38.0355 -37.9966 -37.9113 -32.5998 -32.5998
   -12.0366 -11.3767 -11.0868 -11.0630 -10.9196 -10.8727 -10.8719 -10.8306
   -10.7966 -10.7620 -10.7436 -10.6196 -10.6141 -10.5957 -10.4992 -10.4969
   -10.4835  -9.9937  -7.7571  -7.7318  -7.7316  -7.7196  -7.6687  -7.6675
    18.1760  18.2016  18.3320  18.4221  19.0151  19.0592  19.5009  19.8489
    19.8816  19.9953  20.0523  20.2009  20.3937  20.4196  20.7184  21.0182
    21.1543  21.1707  21.3517  21.3527  21.6899  21.7153  21.7385  21.9713
    22.4007  22.4111  23.2274  23.4101  23.8602  24.0612  24.1406  24.2000
    24.6780  24.7911  24.9059  24.9591  25.3221  25.5587  25.6606  26.1013
    26.3271  26.5430  26.9375  27.2784  28.8877  30.3018  30.7830  31.1717

          k = 0.3392-0.4240 0.1211 (  4364 PWs)   bands (ev):

   -38.1505 -38.0825 -38.0384 -38.0360 -37.9969 -37.9241 -32.5999 -32.5999
   -11.9440 -11.3801 -11.0908 -11.0737 -10.9017 -10.8826 -10.8749 -10.8079
   -10.7768 -10.7466 -10.7296 -10.6246 -10.6062 -10.5932 -10.5101 -10.5100
   -10.5012 -10.0983  -7.7508  -7.7303  -7.7286  -7.7192  -7.6782  -7.6766
    18.2833  18.3366  18.5001  18.6082  19.1146  19.1266  19.4307  19.6802
    19.6905  19.9712  20.0245  20.1698  20.1955  20.2543  20.3644  20.8927
    20.9365  21.1377  21.5874  21.6621  21.7679  21.8116  22.1567  22.3271
    22.5586  22.6220  23.0807  23.4016  23.4129  24.1278  24.2157  24.2496
    24.4849  24.5825  24.7028  25.3110  25.4045  25.6221  25.7273  26.1337
    26.1499  26.7332  26.8389  26.9418  28.5451  29.9455  30.4927  30.5237

          k = 0.3392-0.4240 0.2423 (  4374 PWs)   bands (ev):

   -38.1167 -38.0797 -38.0386 -38.0377 -37.9986 -37.9597 -32.6005 -32.6004
   -11.6894 -11.3902 -11.0946 -11.0895 -10.8967 -10.8950 -10.8632 -10.7952
   -10.7499 -10.7080 -10.6928 -10.6363 -10.5995 -10.5833 -10.5482 -10.5410
   -10.5333 -10.3977  -7.7362  -7.7270  -7.7219  -7.7182  -7.7029  -7.7016
    18.5671  18.5960  18.7294  19.0681  19.1258  19.3200  19.4865  19.5468
    19.6077  19.8067  19.8408  19.9236  19.9618  20.1823  20.2099  20.7559
    21.0745  21.1316  21.3210  21.4906  21.6980  21.8983  22.3797  22.6379
    22.7886  22.9621  23.3532  23.4529  23.6508  24.0383  24.1295  24.2913
    24.4615  24.6160  24.8868  25.2311  25.4091  25.6331  25.6636  25.9261
    26.1347  26.1391  26.9430  27.0938  27.7930  28.5659  29.3250  29.9026

          k = 0.3392-0.4240 0.3634 (  4352 PWs)   bands (ev):

   -38.0768 -38.0663 -38.0378 -38.0378 -38.0097 -37.9990 -32.6006 -32.6006
   -11.3936 -11.3100 -11.0959 -11.0953 -10.9026 -10.8965 -10.8964 -10.8436
   -10.7182 -10.7022 -10.6679 -10.6502 -10.6127 -10.6056 -10.5753 -10.5739
   -10.5622 -10.5614  -7.7256  -7.7232  -7.7179  -7.7176  -7.7164  -7.7158
    18.8131  18.8234  18.9485  18.9972  19.1222  19.1309  19.5582  19.5675
    19.6411  19.6511  19.9734  19.9779  20.2532  20.2695  20.5016  20.6446
    20.8723  20.8927  21.1971  21.3573  21.8669  21.9087  22.4750  22.5864
    22.6894  22.7092  23.2126  23.2217  23.5960  23.7647  24.6251  24.6339
    24.8066  24.8727  25.1908  25.2172  25.5943  25.7459  25.8576  25.9545
    26.0102  26.0736  26.8523  27.0750  27.2218  27.5242  28.2614  28.4862

     the Fermi energy is    25.0502 ev

!    total energy              =   -1353.99015429 Ry
     Harris-Foulkes estimate   =   -1353.99015431 Ry
     estimated scf accuracy    <       0.00000003 Ry

     The total energy is the sum of the following terms:

     one-electron contribution =     -68.58321606 Ry
     hartree contribution      =     143.20686155 Ry
     xc contribution           =    -142.20956243 Ry
     ewald contribution        =   -1285.82704262 Ry
     smearing contrib. (-TS)   =      -0.57719472 Ry

     convergence has been achieved in  12 iterations

     Forces acting on atoms (Ry/au):

     atom    1 type  1   force =     0.00000000    0.00000000    0.00000000
     atom    2 type  1   force =     0.00000000    0.00000000    0.00000000
     atom    3 type  1   force =     0.00000000    0.00000000    0.00000000
     atom    4 type  1   force =     0.00000000    0.00000000    0.00000000
     atom    5 type  1   force =     0.00000000    0.00000000    0.00000000
     atom    6 type  1   force =     0.00000000    0.00000000    0.00000000
     atom    7 type  2   force =     0.00000000    0.00000000    0.00000000
     atom    8 type  2   force =     0.00000000    0.00000000    0.00000000

     Total force =     0.000000     Total SCF correction =     0.000000


     entering subroutine stress ...

          total   stress  (Ry/bohr**3)                   (kbar)     P=  -54.44
  -0.00037004   0.00000000   0.00000000        -54.44      0.00      0.00
   0.00000000  -0.00037004   0.00000000          0.00    -54.44      0.00
   0.00000000   0.00000000  -0.00037004          0.00      0.00    -54.44


     Writing output data file Prototype-La-cP8-Cr3Si.save
 
     init_run     :      5.92s CPU      7.66s WALL (       2 calls)
     electrons    :    900.69s CPU   1052.69s WALL (       5 calls)
     update_pot   :      1.27s CPU      1.29s WALL (       3 calls)
     forces       :      4.52s CPU      4.92s WALL (       5 calls)
     stress       :     11.50s CPU     11.94s WALL (       5 calls)

     Called by init_run:
     wfcinit      :      5.46s CPU      7.20s WALL (       2 calls)
     potinit      :      0.19s CPU      0.19s WALL (       2 calls)

     Called by electrons:
     c_bands      :    861.56s CPU    994.61s WALL (      46 calls)
     sum_band     :     38.87s CPU     47.96s WALL (      46 calls)
     v_of_rho     :      0.05s CPU      0.06s WALL (      51 calls)
     mix_rho      :      0.04s CPU      0.06s WALL (      46 calls)

     Called by c_bands:
     init_us_2    :      2.26s CPU      2.86s WALL (    4992 calls)
     ccgdiagg     :    753.37s CPU    850.58s WALL (    2396 calls)
     wfcrot       :    111.08s CPU    146.46s WALL (    2444 calls)

     Called by *cgdiagg:
     h_psi        :    605.20s CPU    720.78s WALL (  814958 calls)
     cdiaghg      :      5.40s CPU      5.68s WALL (    2444 calls)

     Called by h_psi:
     add_vuspsi   :     56.10s CPU     73.98s WALL (  814958 calls)

     General routines
     calbec       :    208.51s CPU    206.68s WALL ( 1627952 calls)
     fft          :      0.09s CPU      0.10s WALL (     227 calls)
     fftw         :    438.86s CPU    518.83s WALL ( 2192708 calls)
     davcio       :      1.89s CPU      4.10s WALL (    7200 calls)
 
     Parallel routines
     fft_scatter  :    192.41s CPU    220.73s WALL ( 2192935 calls)
 
     PWSCF        : 15m24.50s CPU    18m 1.23s WALL

 
   This run was terminated on:  21:33:15  22Mar2018            

=------------------------------------------------------------------------------=
   JOB DONE.
=------------------------------------------------------------------------------=
