
     Program PWSCF v.5.0.2 starts on 22Mar2018 at 21:15:15 

     This program is part of the open-source Quantum ESPRESSO suite
     for quantum simulation of materials; please cite
         "P. Giannozzi et al., J. Phys.:Condens. Matter 21 395502 (2009);
          URL http://www.quantum-espresso.org", 
     in publications or presentations arising from this work. More details at
     http://www.quantum-espresso.org/quote.php

     Parallel version (MPI), running on     4 processors
     R & G space division:  proc/nbgrp/npool/nimage =       4

     Current dimensions of program PWSCF are:
     Max number of different atomic species (ntypx) = 10
     Max number of k-points (npk) =  40000
     Max angular momentum in pseudopotentials (lmaxx) =  3
     Waiting for input...
     Reading input from standard input

     Subspace diagonalization in iterative solution of the eigenvalue problem:
     a serial algorithm will be used

 
     Parallelization info
     --------------------
     sticks:   dense  smooth     PW     G-vecs:    dense   smooth      PW
     Min          93      93     30                 1717     1717     310
     Max          94      94     31                 1720     1720     313
     Sum         373     373    121                 6871     6871    1247
 


     bravais-lattice index     =            0
     lattice parameter (alat)  =       5.4125  a.u.
     unit-cell volume          =     202.7222 (a.u.)^3
     number of atoms/cell      =            2
     number of atomic types    =            2
     number of electrons       =        33.00
     number of Kohn-Sham states=           21
     kinetic-energy cutoff     =      40.0000  Ry
     charge density cutoff     =     160.0000  Ry
     convergence threshold     =      1.0E-04
     mixing beta               =       0.7000
     number of iterations used =            8  plain     mixing
     Exchange-correlation      = SLA-PZ-NOGX-NOGC ( 1 1 0 0 0)
     EXX-fraction              =        0.00
     nstep                     =           50


     celldm(1)=   5.412493  celldm(2)=   0.000000  celldm(3)=   0.000000
     celldm(4)=   0.000000  celldm(5)=   0.000000  celldm(6)=   0.000000

     crystal axes: (cart. coord. in units of alat)
               a(1) = (   1.000000   0.000000   0.000000 )  
               a(2) = (   0.000000   1.000000   0.000000 )  
               a(3) = (   0.000000   0.000000   1.278525 )  

     reciprocal axes: (cart. coord. in units 2 pi/alat)
               b(1) = (  1.000000  0.000000  0.000000 )  
               b(2) = (  0.000000  1.000000  0.000000 )  
               b(3) = (  0.000000  0.000000  0.782151 )  


     PseudoPot. # 1 for Eu read from file:
     /home/cwx6513/pp.La/Eu.UPF
     MD5 check sum: 5efdbbfc50c6a10138933a6429836ad2
     Pseudo is Norm-conserving, Zval = 17.0
     Generated in analytical, separable form
     Using radial grid of 1261 points,  6 beta functions with: 
                l(1) =   0
                l(2) =   0
                l(3) =   1
                l(4) =   1
                l(5) =   2
                l(6) =   3

     PseudoPot. # 2 for Sm read from file:
     /home/cwx6513/pp.La/Sm.UPF
     MD5 check sum: 5079e8b144a06bfcdbc14fb02b96ab09
     Pseudo is Norm-conserving, Zval = 16.0
     Generated in analytical, separable form
     Using radial grid of 1259 points,  6 beta functions with: 
                l(1) =   0
                l(2) =   0
                l(3) =   1
                l(4) =   1
                l(5) =   2
                l(6) =   3

     atomic species   valence    mass     pseudopotential
        Cu            17.00    63.54600     Eu( 1.00)
        Au            16.00   196.96600     Sm( 1.00)

     16 Sym. Ops., with inversion, found



   Cartesian axes

     site n.     atom                  positions (alat units)
         1           Cu  tau(   1) = (   0.5000000   0.5000000   0.6392626  )
         2           Au  tau(   2) = (   0.0000000   0.0000000   0.0000000  )

     number of k points=   100  gaussian smearing, width (Ry)=  0.1000

     Number of k-points >= 100: set verbosity='high' to print them.

     Dense  grid:     6871 G-vectors     FFT dimensions: (  24,  24,  27)

     Largest allocated arrays     est. size (Mb)     dimensions
        Kohn-Sham Wavefunctions         0.07 Mb     (    228,   21)
        NL pseudopotentials             0.14 Mb     (    228,   40)
        Each V/rho on FFT grid          0.06 Mb     (   4032)
        Each G-vector array             0.01 Mb     (   1720)
        G-vector shells                 0.01 Mb     (   1720)
     Largest temporary arrays     est. size (Mb)     dimensions
        Each subspace H/S matrix        0.01 Mb     (  21,  21)
        Each <psi_i|beta_j> matrix      0.01 Mb     (     40,   21)
        Arrays for rho mixing           0.49 Mb     (   4032,   8)

     Initial potential from superposition of free atoms

     Starting from uniform charge
     Starting wfc are    0 randomized atomic wfcs

     total cpu time spent up to now is        1.3 secs

     Self-consistent Calculation

     iteration #  1     ecut=    40.00 Ry     beta=0.70
     CG style diagonalization
     ethr =  1.00E-02,  avg # of iterations =  9.9

     total cpu time spent up to now is        5.4 secs

     total energy              =    -307.92178424 Ry
     Harris-Foulkes estimate   =    -362.09469557 Ry
     estimated scf accuracy    <      73.43613767 Ry

     iteration #  2     ecut=    40.00 Ry     beta=0.70
     CG style diagonalization
     ethr =  1.00E-02,  avg # of iterations =  5.8

     total cpu time spent up to now is        8.4 secs

     total energy              =    -323.38460932 Ry
     Harris-Foulkes estimate   =    -329.32537519 Ry
     estimated scf accuracy    <       8.24956935 Ry

     iteration #  3     ecut=    40.00 Ry     beta=0.70
     CG style diagonalization
     ethr =  1.00E-02,  avg # of iterations =  4.3

     total cpu time spent up to now is       10.3 secs

     total energy              =    -325.59721760 Ry
     Harris-Foulkes estimate   =    -328.26191095 Ry
     estimated scf accuracy    <       6.24342433 Ry

     iteration #  4     ecut=    40.00 Ry     beta=0.70
     CG style diagonalization
     ethr =  1.00E-02,  avg # of iterations =  3.4

     total cpu time spent up to now is       11.9 secs

     total energy              =    -326.45306129 Ry
     Harris-Foulkes estimate   =    -326.50565882 Ry
     estimated scf accuracy    <       0.08946758 Ry

     iteration #  5     ecut=    40.00 Ry     beta=0.70
     CG style diagonalization
     ethr =  2.71E-04,  avg # of iterations =  4.7

     total cpu time spent up to now is       13.9 secs

     total energy              =    -326.50758414 Ry
     Harris-Foulkes estimate   =    -326.53705656 Ry
     estimated scf accuracy    <       0.10163129 Ry

     iteration #  6     ecut=    40.00 Ry     beta=0.70
     CG style diagonalization
     ethr =  2.71E-04,  avg # of iterations =  3.1

     total cpu time spent up to now is       15.1 secs

     total energy              =    -326.51055525 Ry
     Harris-Foulkes estimate   =    -326.51599171 Ry
     estimated scf accuracy    <       0.01320773 Ry

     iteration #  7     ecut=    40.00 Ry     beta=0.70
     CG style diagonalization
     ethr =  4.00E-05,  avg # of iterations =  3.8

     total cpu time spent up to now is       16.7 secs

     total energy              =    -326.51384483 Ry
     Harris-Foulkes estimate   =    -326.51397051 Ry
     estimated scf accuracy    <       0.00030109 Ry

     iteration #  8     ecut=    40.00 Ry     beta=0.70
     CG style diagonalization
     c_bands:  1 eigenvalues not converged
     c_bands:  1 eigenvalues not converged
     c_bands:  1 eigenvalues not converged
     c_bands:  1 eigenvalues not converged
     ethr =  9.12E-07,  avg # of iterations =  4.5

     total cpu time spent up to now is       18.6 secs

     End of self-consistent calculation

     Number of k-points >= 100: set verbosity='high' to print the bands.

     the Fermi energy is    33.0088 ev

!    total energy              =    -326.51398607 Ry
     Harris-Foulkes estimate   =    -326.51398905 Ry
     estimated scf accuracy    <       0.00000369 Ry

     The total energy is the sum of the following terms:

     one-electron contribution =      21.44195638 Ry
     hartree contribution      =      25.00796170 Ry
     xc contribution           =     -35.43248528 Ry
     ewald contribution        =    -337.43597275 Ry
     smearing contrib. (-TS)   =      -0.09544613 Ry

     convergence has been achieved in   8 iterations

     Forces acting on atoms (Ry/au):

     atom    1 type  1   force =     0.00000000    0.00000000    0.00000000
     atom    2 type  2   force =     0.00000000    0.00000000    0.00000000

     Total force =     0.000000     Total SCF correction =     0.000000


     entering subroutine stress ...

          total   stress  (Ry/bohr**3)                   (kbar)     P= 1075.72
   0.00655374   0.00000000   0.00000000        964.09      0.00      0.00
   0.00000000   0.00655374   0.00000000          0.00    964.09      0.00
   0.00000000   0.00000000   0.00883030          0.00      0.00   1298.98


     BFGS Geometry Optimization

     number of scf cycles    =   1
     number of bfgs steps    =   0

     enthalpy new            =    -326.5139860729 Ry

     new trust radius        =       0.5000000000 bohr
     new conv_thr            =       0.0001000000 Ry

     new unit-cell volume =    304.47843 a.u.^3 (    45.11905 Ang^3 )

CELL_PARAMETERS (alat=  5.41249258)
   1.130317622   0.000000000   0.000000000
   0.000000000   1.130317622   0.000000000
   0.000000000   0.000000000   1.503015978

ATOMIC_POSITIONS (crystal)
Cu       0.500000000   0.500000000   0.500000000
Au       0.000000000   0.000000000   0.000000000



     Writing output data file Prototype-La-tP2-AuCu.save
     NEW-OLD atomic charge density approx. for the potential
     NEW k-points: (use verbosity='high' to print them)

     total cpu time spent up to now is       19.5 secs

     Self-consistent Calculation

     iteration #  1     ecut=    40.00 Ry     beta=0.70
     CG style diagonalization
     c_bands:  1 eigenvalues not converged
     c_bands:  1 eigenvalues not converged
     c_bands:  3 eigenvalues not converged
     c_bands:  3 eigenvalues not converged
     c_bands:  2 eigenvalues not converged
     c_bands:  3 eigenvalues not converged
     c_bands:  2 eigenvalues not converged
     c_bands:  3 eigenvalues not converged
     c_bands:  1 eigenvalues not converged
     c_bands:  2 eigenvalues not converged
     c_bands:  2 eigenvalues not converged
     c_bands:  1 eigenvalues not converged
     c_bands:  1 eigenvalues not converged
     c_bands:  1 eigenvalues not converged
     c_bands:  2 eigenvalues not converged
     c_bands:  1 eigenvalues not converged
     c_bands:  2 eigenvalues not converged
     c_bands:  3 eigenvalues not converged
     c_bands:  3 eigenvalues not converged
     c_bands:  3 eigenvalues not converged
     c_bands:  2 eigenvalues not converged
     c_bands:  5 eigenvalues not converged
     c_bands:  1 eigenvalues not converged
     c_bands:  3 eigenvalues not converged
     c_bands:  3 eigenvalues not converged
     c_bands:  5 eigenvalues not converged
     c_bands:  5 eigenvalues not converged
     c_bands:  5 eigenvalues not converged
     c_bands:  1 eigenvalues not converged
     c_bands:  3 eigenvalues not converged
     c_bands:  2 eigenvalues not converged
     c_bands:  2 eigenvalues not converged
     c_bands:  3 eigenvalues not converged
     c_bands:  1 eigenvalues not converged
     c_bands:  3 eigenvalues not converged
     c_bands:  2 eigenvalues not converged
     c_bands:  1 eigenvalues not converged
     c_bands:  2 eigenvalues not converged
     c_bands:  5 eigenvalues not converged
     c_bands:  2 eigenvalues not converged
     c_bands:  5 eigenvalues not converged
     c_bands:  5 eigenvalues not converged
     c_bands:  1 eigenvalues not converged
     c_bands:  5 eigenvalues not converged
     c_bands:  3 eigenvalues not converged
     c_bands:  3 eigenvalues not converged
     c_bands:  2 eigenvalues not converged
     c_bands:  4 eigenvalues not converged
     c_bands:  2 eigenvalues not converged
     c_bands:  2 eigenvalues not converged
     c_bands:  1 eigenvalues not converged
     c_bands:  1 eigenvalues not converged
     c_bands:  1 eigenvalues not converged
     c_bands:  2 eigenvalues not converged
     c_bands:  5 eigenvalues not converged
     c_bands:  5 eigenvalues not converged
     c_bands:  5 eigenvalues not converged
     c_bands:  5 eigenvalues not converged
     c_bands:  2 eigenvalues not converged
     c_bands:  5 eigenvalues not converged
     c_bands:  5 eigenvalues not converged
     c_bands:  2 eigenvalues not converged
     c_bands:  5 eigenvalues not converged
     c_bands:  1 eigenvalues not converged
     c_bands:  2 eigenvalues not converged
     c_bands:  4 eigenvalues not converged
     c_bands:  3 eigenvalues not converged
     ethr =  1.00E-06,  avg # of iterations = 15.5

     total cpu time spent up to now is       25.8 secs

     total energy              =    -320.44374680 Ry
     Harris-Foulkes estimate   =    -332.37597446 Ry
     estimated scf accuracy    <      15.51004633 Ry

     iteration #  2     ecut=    40.00 Ry     beta=0.70
     CG style diagonalization
     ethr =  1.00E-02,  avg # of iterations =  4.4

     total cpu time spent up to now is       27.4 secs

     total energy              =    -322.70537802 Ry
     Harris-Foulkes estimate   =    -329.12962467 Ry
     estimated scf accuracy    <      11.38679703 Ry

     iteration #  3     ecut=    40.00 Ry     beta=0.70
     CG style diagonalization
     ethr =  1.00E-02,  avg # of iterations =  4.1

     total cpu time spent up to now is       28.9 secs

     total energy              =    -325.48584602 Ry
     Harris-Foulkes estimate   =    -328.43361835 Ry
     estimated scf accuracy    <       8.38176951 Ry

     iteration #  4     ecut=    40.00 Ry     beta=0.70
     CG style diagonalization
     ethr =  1.00E-02,  avg # of iterations =  3.3

     total cpu time spent up to now is       30.7 secs

     total energy              =    -326.27557059 Ry
     Harris-Foulkes estimate   =    -326.36560908 Ry
     estimated scf accuracy    <       0.24514933 Ry

     iteration #  5     ecut=    40.00 Ry     beta=0.70
     CG style diagonalization
     ethr =  7.43E-04,  avg # of iterations =  3.8

     total cpu time spent up to now is       32.1 secs

     total energy              =    -326.36290212 Ry
     Harris-Foulkes estimate   =    -326.38919334 Ry
     estimated scf accuracy    <       0.14128261 Ry

     iteration #  6     ecut=    40.00 Ry     beta=0.70
     CG style diagonalization
     ethr =  4.28E-04,  avg # of iterations =  3.0

     total cpu time spent up to now is       33.2 secs

     total energy              =    -326.36435118 Ry
     Harris-Foulkes estimate   =    -326.37138543 Ry
     estimated scf accuracy    <       0.01652719 Ry

     iteration #  7     ecut=    40.00 Ry     beta=0.70
     CG style diagonalization
     ethr =  5.01E-05,  avg # of iterations =  3.6

     total cpu time spent up to now is       34.5 secs

     total energy              =    -326.36885733 Ry
     Harris-Foulkes estimate   =    -326.37217673 Ry
     estimated scf accuracy    <       0.01678573 Ry

     iteration #  8     ecut=    40.00 Ry     beta=0.70
     CG style diagonalization
     ethr =  5.01E-05,  avg # of iterations =  3.0

     total cpu time spent up to now is       35.8 secs

     total energy              =    -326.36995367 Ry
     Harris-Foulkes estimate   =    -326.37004891 Ry
     estimated scf accuracy    <       0.00081152 Ry

     iteration #  9     ecut=    40.00 Ry     beta=0.70
     CG style diagonalization
     ethr =  2.46E-06,  avg # of iterations =  3.3

     total cpu time spent up to now is       37.6 secs

     total energy              =    -326.36997063 Ry
     Harris-Foulkes estimate   =    -326.37000273 Ry
     estimated scf accuracy    <       0.00020825 Ry

     iteration # 10     ecut=    40.00 Ry     beta=0.70
     CG style diagonalization
     ethr =  6.31E-07,  avg # of iterations =  3.2

     total cpu time spent up to now is       38.9 secs

     End of self-consistent calculation

     Number of k-points >= 100: set verbosity='high' to print the bands.

     the Fermi energy is    19.9307 ev

!    total energy              =    -326.36996781 Ry
     Harris-Foulkes estimate   =    -326.36998935 Ry
     estimated scf accuracy    <       0.00002285 Ry

     The total energy is the sum of the following terms:

     one-electron contribution =     -37.15486972 Ry
     hartree contribution      =      39.71395031 Ry
     xc contribution           =     -34.09758048 Ry
     ewald contribution        =    -294.65723599 Ry
     smearing contrib. (-TS)   =      -0.17423192 Ry

     convergence has been achieved in  10 iterations

     Forces acting on atoms (Ry/au):

     atom    1 type  1   force =     0.00000000    0.00000000    0.00000000
     atom    2 type  2   force =     0.00000000    0.00000000    0.00000000

     Total force =     0.000000     Total SCF correction =     0.000000


     entering subroutine stress ...

          total   stress  (Ry/bohr**3)                   (kbar)     P= -909.43
  -0.00613393   0.00000000   0.00000000       -902.33      0.00      0.00
   0.00000000  -0.00613393   0.00000000          0.00   -902.33      0.00
   0.00000000   0.00000000  -0.00627866          0.00      0.00   -923.62


     number of scf cycles    =   2
     number of bfgs steps    =   1

     enthalpy old            =    -326.5139860729 Ry
     enthalpy new            =    -326.3699678055 Ry

     CASE: enthalpy_new > enthalpy_old

     new trust radius        =       0.2139740896 bohr

     trust_radius < trust_radius_min

     resetting bfgs history

     new conv_thr            =       0.0001000000 Ry

     new unit-cell volume =    294.77613 a.u.^3 (    43.68132 Ang^3 )

CELL_PARAMETERS (alat=  5.41249258)
   1.115563887   0.000000000   0.000000000
   0.000000000   1.115563887   0.000000000
   0.000000000   0.000000000   1.493865427

ATOMIC_POSITIONS (crystal)
Cu       0.500000000   0.500000000   0.500000000
Au       0.000000000   0.000000000   0.000000000



     Writing output data file Prototype-La-tP2-AuCu.save
     NEW-OLD atomic charge density approx. for the potential
     NEW k-points: (use verbosity='high' to print them)

     total cpu time spent up to now is       39.8 secs

     Self-consistent Calculation

     iteration #  1     ecut=    40.00 Ry     beta=0.70
     CG style diagonalization
     c_bands:  1 eigenvalues not converged
     c_bands:  1 eigenvalues not converged
     c_bands:  1 eigenvalues not converged
     ethr =  1.00E-06,  avg # of iterations =  7.2

     total cpu time spent up to now is       42.5 secs

     total energy              =    -326.38384048 Ry
     Harris-Foulkes estimate   =    -326.47001083 Ry
     estimated scf accuracy    <       0.11011789 Ry

     iteration #  2     ecut=    40.00 Ry     beta=0.70
     CG style diagonalization
     ethr =  3.34E-04,  avg # of iterations =  3.8

     total cpu time spent up to now is       44.0 secs

     total energy              =    -326.36132941 Ry
     Harris-Foulkes estimate   =    -326.46545014 Ry
     estimated scf accuracy    <       0.24365052 Ry

     iteration #  3     ecut=    40.00 Ry     beta=0.70
     CG style diagonalization
     ethr =  3.34E-04,  avg # of iterations =  3.4

     total cpu time spent up to now is       45.5 secs

     total energy              =    -326.40258242 Ry
     Harris-Foulkes estimate   =    -326.45549617 Ry
     estimated scf accuracy    <       0.21750015 Ry

     iteration #  4     ecut=    40.00 Ry     beta=0.70
     CG style diagonalization
     ethr =  3.34E-04,  avg # of iterations =  3.1

     total cpu time spent up to now is       46.8 secs

     total energy              =    -326.42713069 Ry
     Harris-Foulkes estimate   =    -326.42719686 Ry
     estimated scf accuracy    <       0.00010432 Ry

     iteration #  5     ecut=    40.00 Ry     beta=0.70
     CG style diagonalization
     c_bands:  1 eigenvalues not converged
     ethr =  3.16E-07,  avg # of iterations =  5.0

     total cpu time spent up to now is       49.2 secs

     total energy              =    -326.42751290 Ry
     Harris-Foulkes estimate   =    -326.42757857 Ry
     estimated scf accuracy    <       0.00024432 Ry

     iteration #  6     ecut=    40.00 Ry     beta=0.70
     CG style diagonalization
     ethr =  3.16E-07,  avg # of iterations =  3.2

     total cpu time spent up to now is       50.7 secs

     End of self-consistent calculation

     Number of k-points >= 100: set verbosity='high' to print the bands.

     the Fermi energy is    20.7984 ev

!    total energy              =    -326.42748689 Ry
     Harris-Foulkes estimate   =    -326.42752752 Ry
     estimated scf accuracy    <       0.00004444 Ry

     The total energy is the sum of the following terms:

     one-electron contribution =     -32.63058279 Ry
     hartree contribution      =      38.39743332 Ry
     xc contribution           =     -34.17226389 Ry
     ewald contribution        =    -297.85653369 Ry
     smearing contrib. (-TS)   =      -0.16553984 Ry

     convergence has been achieved in   6 iterations

     Forces acting on atoms (Ry/au):

     atom    1 type  1   force =     0.00000000    0.00000000    0.00000000
     atom    2 type  2   force =     0.00000000    0.00000000    0.00000000

     Total force =     0.000000     Total SCF correction =     0.000000


     entering subroutine stress ...

          total   stress  (Ry/bohr**3)                   (kbar)     P= -855.52
  -0.00573777   0.00000000   0.00000000       -844.06      0.00      0.00
   0.00000000  -0.00573777   0.00000000          0.00   -844.06      0.00
   0.00000000   0.00000000  -0.00597158          0.00      0.00   -878.45


     number of scf cycles    =   3
     number of bfgs steps    =   1

     enthalpy old            =    -326.5139860729 Ry
     enthalpy new            =    -326.4274868942 Ry

     CASE: enthalpy_new > enthalpy_old

     new trust radius        =       0.2166921650 bohr

     trust_radius < trust_radius_min

     resetting bfgs history

     Message from routine bfgs:
     history already reset at previous step: stopping
     new conv_thr            =       0.0001000000 Ry

     new unit-cell volume =    294.96404 a.u.^3 (    43.70916 Ang^3 )

CELL_PARAMETERS (alat=  5.41249258)
   1.115105022   0.000000000   0.000000000
   0.000000000   1.115105022   0.000000000
   0.000000000   0.000000000   1.496048187

ATOMIC_POSITIONS (crystal)
Cu       0.500000000   0.500000000   0.500000000
Au       0.000000000   0.000000000   0.000000000



     Writing output data file Prototype-La-tP2-AuCu.save
     NEW-OLD atomic charge density approx. for the potential
     NEW k-points: (use verbosity='high' to print them)

     total cpu time spent up to now is       51.6 secs

     Self-consistent Calculation

     iteration #  1     ecut=    40.00 Ry     beta=0.70
     CG style diagonalization
     ethr =  1.00E-06,  avg # of iterations =  4.2

     total cpu time spent up to now is       53.1 secs

     total energy              =    -326.42542512 Ry
     Harris-Foulkes estimate   =    -326.42659709 Ry
     estimated scf accuracy    <       0.00141128 Ry

     iteration #  2     ecut=    40.00 Ry     beta=0.70
     CG style diagonalization
     ethr =  4.28E-06,  avg # of iterations =  3.9

     total cpu time spent up to now is       54.8 secs

     total energy              =    -326.42393720 Ry
     Harris-Foulkes estimate   =    -326.42906592 Ry
     estimated scf accuracy    <       0.02114346 Ry

     iteration #  3     ecut=    40.00 Ry     beta=0.70
     CG style diagonalization
     ethr =  4.28E-06,  avg # of iterations =  3.6

     total cpu time spent up to now is       56.1 secs

     End of self-consistent calculation

     Number of k-points >= 100: set verbosity='high' to print the bands.

     the Fermi energy is    20.7803 ev

!    total energy              =    -326.42633120 Ry
     Harris-Foulkes estimate   =    -326.42634904 Ry
     estimated scf accuracy    <       0.00002112 Ry

     The total energy is the sum of the following terms:

     one-electron contribution =     -32.71216587 Ry
     hartree contribution      =      38.41535304 Ry
     xc contribution           =     -34.17025142 Ry
     ewald contribution        =    -297.79361260 Ry
     smearing contrib. (-TS)   =      -0.16565435 Ry

     convergence has been achieved in   3 iterations

     Forces acting on atoms (Ry/au):

     atom    1 type  1   force =     0.00000000    0.00000000    0.00000000
     atom    2 type  2   force =     0.00000000    0.00000000    0.00000000

     Total force =     0.000000     Total SCF correction =     0.000000


     entering subroutine stress ...

          total   stress  (Ry/bohr**3)                   (kbar)     P= -855.79
  -0.00570742   0.00000000   0.00000000       -839.59      0.00      0.00
   0.00000000  -0.00570742   0.00000000          0.00   -839.59      0.00
   0.00000000   0.00000000  -0.00603778          0.00      0.00   -888.19


     The maximum number of steps has been reached.

     End of BFGS Geometry Optimization
Begin final coordinates
     new unit-cell volume =    294.96404 a.u.^3 (    43.70916 Ang^3 )

CELL_PARAMETERS (alat=  5.41249258)
   1.115105022   0.000000000   0.000000000
   0.000000000   1.115105022   0.000000000
   0.000000000   0.000000000   1.496048187

ATOMIC_POSITIONS (crystal)
Cu       0.500000000   0.500000000   0.500000000
Au       0.000000000   0.000000000   0.000000000
End final coordinates



     A final scf calculation at the relaxed structure.
     The G-vectors are recalculated for the final unit cell
     Results may differ from those at the preceding step.
 
     Parallelization info
     --------------------
     sticks:   dense  smooth     PW     G-vecs:    dense   smooth      PW
     Min         115     115     36                 2519     2519     452
     Max         117     117     37                 2521     2521     454
     Sum         465     465    145                10081    10081    1811
 


     bravais-lattice index     =            0
     lattice parameter (alat)  =       5.4125  a.u.
     unit-cell volume          =     294.9640 (a.u.)^3
     number of atoms/cell      =            2
     number of atomic types    =            2
     number of electrons       =        33.00
     number of Kohn-Sham states=           21
     kinetic-energy cutoff     =      40.0000  Ry
     charge density cutoff     =     160.0000  Ry
     convergence threshold     =      1.0E-04
     mixing beta               =       0.7000
     number of iterations used =            8  plain     mixing
     Exchange-correlation      = SLA-PZ-NOGX-NOGC ( 1 1 0 0 0)
     EXX-fraction              =        0.00

     celldm(1)=   5.412493  celldm(2)=   0.000000  celldm(3)=   0.000000
     celldm(4)=   0.000000  celldm(5)=   0.000000  celldm(6)=   0.000000

     crystal axes: (cart. coord. in units of alat)
               a(1) = (   1.115105   0.000000   0.000000 )  
               a(2) = (   0.000000   1.115105   0.000000 )  
               a(3) = (   0.000000   0.000000   1.496048 )  

     reciprocal axes: (cart. coord. in units 2 pi/alat)
               b(1) = (  0.896777  0.000000  0.000000 )  
               b(2) = (  0.000000  0.896777  0.000000 )  
               b(3) = (  0.000000  0.000000  0.668428 )  


     PseudoPot. # 1 for Eu read from file:
     /home/cwx6513/pp.La/Eu.UPF
     MD5 check sum: 5efdbbfc50c6a10138933a6429836ad2
     Pseudo is Norm-conserving, Zval = 17.0
     Generated in analytical, separable form
     Using radial grid of 1261 points,  6 beta functions with: 
                l(1) =   0
                l(2) =   0
                l(3) =   1
                l(4) =   1
                l(5) =   2
                l(6) =   3

     PseudoPot. # 2 for Sm read from file:
     /home/cwx6513/pp.La/Sm.UPF
     MD5 check sum: 5079e8b144a06bfcdbc14fb02b96ab09
     Pseudo is Norm-conserving, Zval = 16.0
     Generated in analytical, separable form
     Using radial grid of 1259 points,  6 beta functions with: 
                l(1) =   0
                l(2) =   0
                l(3) =   1
                l(4) =   1
                l(5) =   2
                l(6) =   3

     atomic species   valence    mass     pseudopotential
        Cu            17.00    63.54600     Eu( 1.00)
        Au            16.00   196.96600     Sm( 1.00)

     16 Sym. Ops., with inversion, found



   Cartesian axes

     site n.     atom                  positions (alat units)
         1           Cu  tau(   1) = (   0.5575525   0.5575525   0.7480241  )
         2           Au  tau(   2) = (   0.0000000   0.0000000   0.0000000  )

     number of k points=   100  gaussian smearing, width (Ry)=  0.1000

     Number of k-points >= 100: set verbosity='high' to print them.

     Dense  grid:    10081 G-vectors     FFT dimensions: (  25,  25,  36)

     Largest allocated arrays     est. size (Mb)     dimensions
        Kohn-Sham Wavefunctions         0.10 Mb     (    324,   21)
        NL pseudopotentials             0.20 Mb     (    324,   40)
        Each V/rho on FFT grid          0.09 Mb     (   5625)
        Each G-vector array             0.02 Mb     (   2519)
        G-vector shells                 0.00 Mb     (    645)
     Largest temporary arrays     est. size (Mb)     dimensions
        Each subspace H/S matrix        0.01 Mb     (  21,  21)
        Each <psi_i|beta_j> matrix      0.01 Mb     (     40,   21)
        Arrays for rho mixing           0.69 Mb     (   5625,   8)

     Initial potential from superposition of free atoms

     Starting from uniform charge
     Starting wfc are    0 randomized atomic wfcs

     Writing output data file Prototype-La-tP2-AuCu.save

     total cpu time spent up to now is       57.4 secs

     Self-consistent Calculation

     iteration #  1     ecut=    40.00 Ry     beta=0.70
     CG style diagonalization
     c_bands:  4 eigenvalues not converged
     c_bands:  4 eigenvalues not converged
     c_bands:  3 eigenvalues not converged
     c_bands:  3 eigenvalues not converged
     c_bands:  3 eigenvalues not converged
     c_bands:  3 eigenvalues not converged
     c_bands:  2 eigenvalues not converged
     c_bands:  3 eigenvalues not converged
     c_bands:  3 eigenvalues not converged
     c_bands:  3 eigenvalues not converged
     c_bands:  2 eigenvalues not converged
     c_bands:  3 eigenvalues not converged
     c_bands:  4 eigenvalues not converged
     c_bands:  4 eigenvalues not converged
     c_bands:  3 eigenvalues not converged
     c_bands:  3 eigenvalues not converged
     c_bands:  5 eigenvalues not converged
     c_bands:  5 eigenvalues not converged
     c_bands:  4 eigenvalues not converged
     c_bands:  3 eigenvalues not converged
     c_bands:  3 eigenvalues not converged
     c_bands:  2 eigenvalues not converged
     c_bands:  5 eigenvalues not converged
     c_bands:  5 eigenvalues not converged
     c_bands:  5 eigenvalues not converged
     c_bands:  4 eigenvalues not converged
     c_bands:  4 eigenvalues not converged
     c_bands:  5 eigenvalues not converged
     c_bands:  3 eigenvalues not converged
     c_bands:  5 eigenvalues not converged
     c_bands:  3 eigenvalues not converged
     c_bands:  4 eigenvalues not converged
     c_bands:  4 eigenvalues not converged
     c_bands:  5 eigenvalues not converged
     c_bands:  4 eigenvalues not converged
     c_bands:  5 eigenvalues not converged
     c_bands:  3 eigenvalues not converged
     c_bands:  3 eigenvalues not converged
     c_bands:  5 eigenvalues not converged
     c_bands:  3 eigenvalues not converged
     c_bands:  4 eigenvalues not converged
     c_bands:  2 eigenvalues not converged
     c_bands:  3 eigenvalues not converged
     c_bands:  3 eigenvalues not converged
     c_bands:  3 eigenvalues not converged
     c_bands:  2 eigenvalues not converged
     c_bands:  3 eigenvalues not converged
     c_bands:  5 eigenvalues not converged
     c_bands:  2 eigenvalues not converged
     c_bands:  1 eigenvalues not converged
     c_bands:  4 eigenvalues not converged
     c_bands:  5 eigenvalues not converged
     c_bands:  3 eigenvalues not converged
     c_bands:  3 eigenvalues not converged
     c_bands:  3 eigenvalues not converged
     c_bands:  3 eigenvalues not converged
     c_bands:  3 eigenvalues not converged
     c_bands:  3 eigenvalues not converged
     c_bands:  3 eigenvalues not converged
     c_bands:  4 eigenvalues not converged
     c_bands:  5 eigenvalues not converged
     c_bands:  3 eigenvalues not converged
     c_bands:  4 eigenvalues not converged
     c_bands:  4 eigenvalues not converged
     c_bands:  2 eigenvalues not converged
     c_bands:  5 eigenvalues not converged
     c_bands:  4 eigenvalues not converged
     c_bands:  3 eigenvalues not converged
     c_bands:  3 eigenvalues not converged
     c_bands:  3 eigenvalues not converged
     c_bands:  4 eigenvalues not converged
     c_bands:  4 eigenvalues not converged
     c_bands:  5 eigenvalues not converged
     c_bands:  5 eigenvalues not converged
     c_bands:  2 eigenvalues not converged
     c_bands:  4 eigenvalues not converged
     c_bands:  2 eigenvalues not converged
     c_bands:  5 eigenvalues not converged
     c_bands:  5 eigenvalues not converged
     c_bands:  4 eigenvalues not converged
     c_bands:  3 eigenvalues not converged
     c_bands:  3 eigenvalues not converged
     c_bands:  4 eigenvalues not converged
     c_bands:  4 eigenvalues not converged
     c_bands:  4 eigenvalues not converged
     c_bands:  3 eigenvalues not converged
     c_bands:  3 eigenvalues not converged
     c_bands:  3 eigenvalues not converged
     c_bands:  4 eigenvalues not converged
     c_bands:  4 eigenvalues not converged
     c_bands:  5 eigenvalues not converged
     c_bands:  4 eigenvalues not converged
     c_bands:  4 eigenvalues not converged
     c_bands:  4 eigenvalues not converged
     c_bands:  4 eigenvalues not converged
     c_bands:  5 eigenvalues not converged
     c_bands:  3 eigenvalues not converged
     c_bands:  5 eigenvalues not converged
     c_bands:  5 eigenvalues not converged
     ethr =  1.00E-06,  avg # of iterations = 35.7

     total cpu time spent up to now is       77.0 secs

     total energy              =    -303.51983822 Ry
     Harris-Foulkes estimate   =    -384.99022609 Ry
     estimated scf accuracy    <     107.81731295 Ry

     iteration #  2     ecut=    40.00 Ry     beta=0.70
     CG style diagonalization
     ethr =  1.00E-02,  avg # of iterations =  6.3

     total cpu time spent up to now is       80.3 secs

     total energy              =    -321.57875590 Ry
     Harris-Foulkes estimate   =    -330.55767167 Ry
     estimated scf accuracy    <      12.42901140 Ry

     iteration #  3     ecut=    40.00 Ry     beta=0.70
     CG style diagonalization
     ethr =  1.00E-02,  avg # of iterations =  5.1

     total cpu time spent up to now is       83.1 secs

     total energy              =    -324.98563344 Ry
     Harris-Foulkes estimate   =    -331.44949448 Ry
     estimated scf accuracy    <      17.63677051 Ry

     iteration #  4     ecut=    40.00 Ry     beta=0.70
     CG style diagonalization
     ethr =  1.00E-02,  avg # of iterations =  3.9

     total cpu time spent up to now is       85.2 secs

     total energy              =    -326.34880433 Ry
     Harris-Foulkes estimate   =    -326.85042212 Ry
     estimated scf accuracy    <       1.06436485 Ry

     iteration #  5     ecut=    40.00 Ry     beta=0.70
     CG style diagonalization
     ethr =  3.23E-03,  avg # of iterations =  3.6

     negative rho (up, down):  0.822E-05 0.000E+00

     total cpu time spent up to now is       87.3 secs

     total energy              =    -326.75093966 Ry
     Harris-Foulkes estimate   =    -327.01357249 Ry
     estimated scf accuracy    <       1.65315404 Ry

     iteration #  6     ecut=    40.00 Ry     beta=0.70
     CG style diagonalization
     ethr =  3.23E-03,  avg # of iterations =  3.0

     total cpu time spent up to now is       89.2 secs

     total energy              =    -326.71900188 Ry
     Harris-Foulkes estimate   =    -326.82193857 Ry
     estimated scf accuracy    <       0.33553212 Ry

     iteration #  7     ecut=    40.00 Ry     beta=0.70
     CG style diagonalization
     ethr =  1.02E-03,  avg # of iterations =  3.2

     total cpu time spent up to now is       90.9 secs

     total energy              =    -326.78388016 Ry
     Harris-Foulkes estimate   =    -326.79016382 Ry
     estimated scf accuracy    <       0.03788726 Ry

     iteration #  8     ecut=    40.00 Ry     beta=0.70
     CG style diagonalization
     ethr =  1.15E-04,  avg # of iterations =  3.4

     total cpu time spent up to now is       93.5 secs

     total energy              =    -326.78486373 Ry
     Harris-Foulkes estimate   =    -326.78720182 Ry
     estimated scf accuracy    <       0.00894669 Ry

     iteration #  9     ecut=    40.00 Ry     beta=0.70
     CG style diagonalization
     c_bands:  1 eigenvalues not converged
     c_bands:  1 eigenvalues not converged
     ethr =  2.71E-05,  avg # of iterations =  3.2

     total cpu time spent up to now is       95.5 secs

     End of self-consistent calculation

     Number of k-points >= 100: set verbosity='high' to print the bands.

     the Fermi energy is    20.7680 ev

!    total energy              =    -326.78611012 Ry
     Harris-Foulkes estimate   =    -326.78614213 Ry
     estimated scf accuracy    <       0.00004309 Ry

     The total energy is the sum of the following terms:

     one-electron contribution =     -33.21852310 Ry
     hartree contribution      =      38.60355967 Ry
     xc contribution           =     -34.21236355 Ry
     ewald contribution        =    -297.79360846 Ry
     smearing contrib. (-TS)   =      -0.16517468 Ry

     convergence has been achieved in   9 iterations

     Forces acting on atoms (Ry/au):

     atom    1 type  1   force =     0.00000000    0.00000000    0.00000000
     atom    2 type  2   force =     0.00000000    0.00000000    0.00000000

     Total force =     0.000000     Total SCF correction =     0.000000


     entering subroutine stress ...

          total   stress  (Ry/bohr**3)                   (kbar)     P= -368.30
  -0.00264055   0.00000000   0.00000000       -388.44      0.00      0.00
   0.00000000  -0.00264055   0.00000000          0.00   -388.44      0.00
   0.00000000   0.00000000  -0.00222981          0.00      0.00   -328.02


     Writing output data file Prototype-La-tP2-AuCu.save
 
     init_run     :      1.13s CPU      1.30s WALL (       2 calls)
     electrons    :     82.17s CPU     90.05s WALL (       5 calls)
     update_pot   :      0.52s CPU      0.53s WALL (       3 calls)
     forces       :      0.65s CPU      0.67s WALL (       5 calls)
     stress       :      1.50s CPU      1.52s WALL (       5 calls)

     Called by init_run:
     wfcinit      :      0.91s CPU      1.06s WALL (       2 calls)
     potinit      :      0.09s CPU      0.09s WALL (       2 calls)

     Called by electrons:
     c_bands      :     77.23s CPU     82.07s WALL (      36 calls)
     sum_band     :      4.85s CPU      5.08s WALL (      36 calls)
     v_of_rho     :      0.02s CPU      0.02s WALL (      41 calls)
     mix_rho      :      0.02s CPU      0.03s WALL (      36 calls)

     Called by c_bands:
     init_us_2    :      0.82s CPU      0.81s WALL (    8400 calls)
     ccgdiagg     :     65.21s CPU     68.80s WALL (    3738 calls)
     wfcrot       :     12.24s CPU     13.32s WALL (    3838 calls)

     Called by *cgdiagg:
     h_psi        :     55.12s CPU     59.57s WALL (  327841 calls)
     cdiaghg      :      0.48s CPU      0.64s WALL (    3838 calls)

     Called by h_psi:
     add_vuspsi   :      2.58s CPU      3.31s WALL (  327841 calls)

     General routines
     calbec       :     10.88s CPU     11.65s WALL (  652844 calls)
     fft          :      0.03s CPU      0.04s WALL (     187 calls)
     fftw         :     46.25s CPU     47.87s WALL (  884802 calls)
     davcio       :      0.35s CPU      0.65s WALL (   12000 calls)
 
     Parallel routines
     fft_scatter  :     17.22s CPU     18.36s WALL (  884989 calls)
 
     PWSCF        :  1m26.90s CPU     1m36.25s WALL

 
   This run was terminated on:  21:16:51  22Mar2018            

=------------------------------------------------------------------------------=
   JOB DONE.
=------------------------------------------------------------------------------=
