
     Program PWSCF v.5.0.2 starts on 22Mar2018 at 22:47:30 

     This program is part of the open-source Quantum ESPRESSO suite
     for quantum simulation of materials; please cite
         "P. Giannozzi et al., J. Phys.:Condens. Matter 21 395502 (2009);
          URL http://www.quantum-espresso.org", 
     in publications or presentations arising from this work. More details at
     http://www.quantum-espresso.org/quote.php

     Parallel version (MPI), running on     4 processors
     R & G space division:  proc/nbgrp/npool/nimage =       4

     Current dimensions of program PWSCF are:
     Max number of different atomic species (ntypx) = 10
     Max number of k-points (npk) =  40000
     Max angular momentum in pseudopotentials (lmaxx) =  3
     Waiting for input...
     Reading input from standard input

     Subspace diagonalization in iterative solution of the eigenvalue problem:
     a serial algorithm will be used

 
     Parallelization info
     --------------------
     sticks:   dense  smooth     PW     G-vecs:    dense   smooth      PW
     Min         207     207     61                 7381     7381    1191
     Max         208     208     62                 7386     7386    1192
     Sum         829     829    247                29529    29529    4767
 


     bravais-lattice index     =            0
     lattice parameter (alat)  =       7.0151  a.u.
     unit-cell volume          =     862.2778 (a.u.)^3
     number of atoms/cell      =           12
     number of atomic types    =            2
     number of electrons       =       244.00
     number of Kohn-Sham states=          146
     kinetic-energy cutoff     =      40.0000  Ry
     charge density cutoff     =     160.0000  Ry
     convergence threshold     =      1.0E-04
     mixing beta               =       0.7000
     number of iterations used =            8  plain     mixing
     Exchange-correlation      = SLA-PZ-NOGX-NOGC ( 1 1 0 0 0)
     EXX-fraction              =        0.00
     nstep                     =           50


     celldm(1)=   7.015105  celldm(2)=   0.000000  celldm(3)=   0.000000
     celldm(4)=   0.000000  celldm(5)=   0.000000  celldm(6)=   0.000000

     crystal axes: (cart. coord. in units of alat)
               a(1) = (   1.000000   0.000000   0.000000 )  
               a(2) = (   0.000000   1.315963   0.000000 )  
               a(3) = (   0.000000   0.000000   1.898020 )  

     reciprocal axes: (cart. coord. in units 2 pi/alat)
               b(1) = (  1.000000  0.000000  0.000000 )  
               b(2) = (  0.000000  0.759900  0.000000 )  
               b(3) = (  0.000000  0.000000  0.526865 )  


     PseudoPot. # 1 for Gd read from file:
     /home/cwx6513/pp.La/Gd.UPF
     MD5 check sum: 09a8be538722f05520810cb6aac0efd2
     Pseudo is Norm-conserving, Zval = 18.0
     Generated in analytical, separable form
     Using radial grid of 1263 points,  6 beta functions with: 
                l(1) =   0
                l(2) =   0
                l(3) =   1
                l(4) =   1
                l(5) =   2
                l(6) =   3

     PseudoPot. # 2 for Lu read from file:
     /home/cwx6513/pp.La/La.UPF
     MD5 check sum: 4fc038260c66a0bf25fb4835376efb80
     Pseudo is Norm-conserving, Zval = 25.0
     Generated in analytical, separable form
     Using radial grid of 1271 points,  6 beta functions with: 
                l(1) =   0
                l(2) =   0
                l(3) =   1
                l(4) =   1
                l(5) =   2
                l(6) =   3

     atomic species   valence    mass     pseudopotential
        Co            18.00    58.93320     Gd( 1.00)
        Si            25.00    28.08550     Lu( 1.00)

      8 Sym. Ops., with inversion, found ( 6 have fractional translation)



   Cartesian axes

     site n.     atom                  positions (alat units)
         1           Co  tau(   1) = (   0.7500000   1.0875135   0.8270358  )
         2           Co  tau(   2) = (   0.2500000   0.2284499   1.0709846  )
         3           Co  tau(   3) = (   0.7500000   0.4295318   0.1219744  )
         4           Co  tau(   4) = (   0.2500000   0.8864316   1.7760460  )
         5           Co  tau(   5) = (   0.2500000   0.7067855   0.5358966  )
         6           Co  tau(   6) = (   0.7500000   0.6091779   1.3621238  )
         7           Co  tau(   7) = (   0.2500000   0.0488038   0.4131136  )
         8           Co  tau(   8) = (   0.7500000   1.2671596   1.4849068  )
         9           Si  tau(   9) = (   0.2500000   0.2669484   1.6960710  )
        10           Si  tau(  10) = (   0.7500000   1.0490149   0.2019494  )
        11           Si  tau(  11) = (   0.2500000   0.9249301   1.1509596  )
        12           Si  tau(  12) = (   0.7500000   0.3910333   0.7470608  )

     number of k points=    12  gaussian smearing, width (Ry)=  0.1000
                       cart. coord. in units 2pi/alat
        k(    1) = (   0.0000000   0.0000000   0.0000000), wk =   0.0833333
        k(    2) = (   0.0000000   0.0000000   0.1317162), wk =   0.1666667
        k(    3) = (   0.0000000   0.0000000  -0.2634324), wk =   0.0833333
        k(    4) = (   0.0000000   0.2532999   0.0000000), wk =   0.1666667
        k(    5) = (   0.0000000   0.2532999   0.1317162), wk =   0.3333333
        k(    6) = (   0.0000000   0.2532999  -0.2634324), wk =   0.1666667
        k(    7) = (  -0.5000000   0.0000000   0.0000000), wk =   0.0833333
        k(    8) = (  -0.5000000   0.0000000   0.1317162), wk =   0.1666667
        k(    9) = (  -0.5000000   0.0000000  -0.2634324), wk =   0.0833333
        k(   10) = (  -0.5000000   0.2532999   0.0000000), wk =   0.1666667
        k(   11) = (  -0.5000000   0.2532999   0.1317162), wk =   0.3333333
        k(   12) = (  -0.5000000   0.2532999  -0.2634324), wk =   0.1666667

     Dense  grid:    29529 G-vectors     FFT dimensions: (  30,  40,  54)

     Largest allocated arrays     est. size (Mb)     dimensions
        Kohn-Sham Wavefunctions         2.05 Mb     (    922,  146)
        NL pseudopotentials             3.38 Mb     (    922,  240)
        Each V/rho on FFT grid          0.26 Mb     (  16800)
        Each G-vector array             0.06 Mb     (   7386)
        G-vector shells                 0.06 Mb     (   7386)
     Largest temporary arrays     est. size (Mb)     dimensions
        Each subspace H/S matrix        0.33 Mb     ( 146, 146)
        Each <psi_i|beta_j> matrix      0.53 Mb     (    240,  146)
        Arrays for rho mixing           2.05 Mb     (  16800,   8)

     Initial potential from superposition of free atoms

     Starting from uniform charge
     Starting wfc are    0 randomized atomic wfcs

     total cpu time spent up to now is        3.6 secs

     Self-consistent Calculation

     iteration #  1     ecut=    40.00 Ry     beta=0.70
     CG style diagonalization
     ethr =  1.00E-02,  avg # of iterations = 18.5

     total cpu time spent up to now is       57.4 secs

     total energy              =   -2470.28420428 Ry
     Harris-Foulkes estimate   =   -4113.28060718 Ry
     estimated scf accuracy    <    1975.53488725 Ry

     iteration #  2     ecut=    40.00 Ry     beta=0.70
     CG style diagonalization
     ethr =  1.00E-02,  avg # of iterations = 16.1

     total cpu time spent up to now is      104.7 secs

     total energy              =   -2913.41883208 Ry
     Harris-Foulkes estimate   =   -4143.03614230 Ry
     estimated scf accuracy    <    2304.01624443 Ry

     iteration #  3     ecut=    40.00 Ry     beta=0.70
     CG style diagonalization
     c_bands:  2 eigenvalues not converged
     c_bands:  1 eigenvalues not converged
     c_bands:  1 eigenvalues not converged
     ethr =  1.00E-02,  avg # of iterations = 11.9

     total cpu time spent up to now is      140.3 secs

     total energy              =   -3373.01578100 Ry
     Harris-Foulkes estimate   =   -3448.23839294 Ry
     estimated scf accuracy    <     127.32438979 Ry

     iteration #  4     ecut=    40.00 Ry     beta=0.70
     CG style diagonalization
     ethr =  1.00E-02,  avg # of iterations =  5.3

     total cpu time spent up to now is      156.5 secs

     total energy              =   -3405.69543506 Ry
     Harris-Foulkes estimate   =   -3413.05665457 Ry
     estimated scf accuracy    <      14.62073818 Ry

     iteration #  5     ecut=    40.00 Ry     beta=0.70
     CG style diagonalization
     ethr =  5.99E-03,  avg # of iterations =  3.6

     total cpu time spent up to now is      167.1 secs

     total energy              =   -3408.45993213 Ry
     Harris-Foulkes estimate   =   -3409.28874711 Ry
     estimated scf accuracy    <       1.68403618 Ry

     iteration #  6     ecut=    40.00 Ry     beta=0.70
     CG style diagonalization
     ethr =  6.90E-04,  avg # of iterations =  4.0

     total cpu time spent up to now is      178.6 secs

     total energy              =   -3408.80828865 Ry
     Harris-Foulkes estimate   =   -3408.99214465 Ry
     estimated scf accuracy    <       0.33644190 Ry

     iteration #  7     ecut=    40.00 Ry     beta=0.70
     CG style diagonalization
     c_bands:  1 eigenvalues not converged
     ethr =  1.38E-04,  avg # of iterations =  4.1

     total cpu time spent up to now is      190.2 secs

     total energy              =   -3408.90830901 Ry
     Harris-Foulkes estimate   =   -3408.93137313 Ry
     estimated scf accuracy    <       0.04257515 Ry

     iteration #  8     ecut=    40.00 Ry     beta=0.70
     CG style diagonalization
     c_bands:  1 eigenvalues not converged
     c_bands:  1 eigenvalues not converged
     ethr =  1.74E-05,  avg # of iterations =  4.1

     total cpu time spent up to now is      201.7 secs

     total energy              =   -3408.91768319 Ry
     Harris-Foulkes estimate   =   -3408.92237858 Ry
     estimated scf accuracy    <       0.00800981 Ry

     iteration #  9     ecut=    40.00 Ry     beta=0.70
     CG style diagonalization
     c_bands:  2 eigenvalues not converged
     c_bands:  1 eigenvalues not converged
     ethr =  3.28E-06,  avg # of iterations =  4.2

     total cpu time spent up to now is      214.3 secs

     total energy              =   -3408.92028983 Ry
     Harris-Foulkes estimate   =   -3408.92065430 Ry
     estimated scf accuracy    <       0.00075179 Ry

     iteration # 10     ecut=    40.00 Ry     beta=0.70
     CG style diagonalization
     c_bands:  2 eigenvalues not converged
     ethr =  3.08E-07,  avg # of iterations =  3.9

     total cpu time spent up to now is      224.9 secs

     End of self-consistent calculation

          k = 0.0000 0.0000 0.0000 (  3675 PWs)   bands (ev):

   -83.9386 -83.8976 -83.8870 -83.8496 -39.7216 -39.7186 -39.7090 -39.6992
   -39.6992 -39.6977 -39.6889 -39.6874 -39.5249 -39.5176 -39.5074 -39.4879
   -19.0155 -18.6957 -18.5883 -18.5212 -18.3380 -18.1112 -17.9856 -17.9758
     7.7299   8.0963   8.3017   8.4940   8.5292   8.5748   8.8036   8.8595
     9.1498   9.2170   9.5006   9.6993   9.7760   9.9203  10.0313  10.0624
    10.1506  10.3071  10.4794  10.6710  10.8209  11.1020  11.5798  11.7294
    19.7355  19.7789  19.8405  19.9114  19.9279  19.9398  19.9827  19.9913
    20.0823  20.0843  20.1715  20.3220  20.3887  20.4583  20.5839  20.6095
    20.6335  20.6636  20.6971  20.7187  31.8030  32.8792  34.5187  34.6303
    36.9852  37.4172  38.5166  38.8150  39.2754  39.3684  39.6319  39.7068
    39.7318  39.9086  40.0138  40.0827  40.9165  41.1587  41.2032  42.1249
    42.2739  42.5273  43.6589  43.8864  44.1410  44.3549  44.3718  45.3469
    45.4338  45.5848  45.8237  45.9188  46.0364  46.3434  47.2732  47.3674
    47.4680  47.5388  47.6415  48.3602  48.4341  48.9263  49.0042  50.5467
    50.6553  51.1257  51.5491  52.2797  53.2348  53.6524  53.9167  55.1131
    55.3320  55.6294  55.6366  56.8065  57.0774  57.2081  57.2944  57.4734
    57.7239  58.0072  58.0182  58.2299  58.3751  58.6491  59.1048  59.2241
    59.5169  59.6791  59.7216  59.8576  59.9955  60.4720  61.5476  61.5483
    61.9003  61.9381

          k = 0.0000 0.0000 0.1317 (  3675 PWs)   bands (ev):

   -83.9510 -83.8876 -83.8861 -83.8525 -39.7160 -39.7071 -39.7060 -39.7059
   -39.7005 -39.6954 -39.6945 -39.6877 -39.5268 -39.5263 -39.5010 -39.4935
   -18.9842 -18.7795 -18.5459 -18.5223 -18.2998 -18.1416 -17.9804 -17.9786
     7.7788   8.0834   8.3145   8.4225   8.4451   8.6889   8.7603   8.9570
     9.1718   9.3169   9.4529   9.6521   9.7668   9.8616  10.0241  10.0295
    10.1979  10.3664  10.6149  10.6443  10.6950  10.9968  11.5954  11.7007
    19.7052  19.7769  19.8517  19.8922  19.9015  20.0004  20.0245  20.0326
    20.0802  20.1094  20.2578  20.3956  20.4173  20.4459  20.5283  20.5342
    20.6270  20.6494  20.6718  20.6753  32.1124  32.9551  34.2920  34.4521
    37.1745  37.7747  38.4583  38.6485  39.1432  39.3630  39.6230  39.6337
    39.7046  40.0071  40.1529  40.2581  40.7485  41.0840  41.2093  41.3378
    42.0264  42.7059  42.9235  42.9931  44.5946  44.5978  44.9060  45.0995
    45.1566  45.3048  45.5945  46.0093  46.3317  46.7397  47.4394  47.4457
    47.7321  47.9256  47.9839  48.3932  48.8235  49.0150  49.4738  50.3179
    51.0934  51.2286  52.0182  52.2072  53.1060  54.0376  54.1275  54.3401
    54.8119  55.4866  55.5002  56.5255  56.5788  57.3085  57.3291  57.3601
    57.4095  57.7625  58.2124  58.2568  58.6130  58.6609  58.7685  58.9802
    59.2773  59.8250  59.8621  60.1707  60.4523  60.4806  60.7662  61.2476
    61.5480  61.6000

          k = 0.0000 0.0000-0.2634 (  3690 PWs)   bands (ev):

   -83.9441 -83.9441 -83.8818 -83.8818 -39.7098 -39.7098 -39.7050 -39.7050
   -39.7002 -39.7002 -39.6977 -39.6977 -39.5382 -39.5382 -39.5015 -39.5015
   -18.9002 -18.9002 -18.5243 -18.5243 -18.2148 -18.2148 -17.9809 -17.9809
     7.9174   7.9174   8.3575   8.3575   8.5597   8.5597   8.9404   8.9404
     9.2390   9.2390   9.5419   9.5419   9.7682   9.7682  10.0488  10.0488
    10.3738  10.3738  10.5466  10.5466  10.7864  10.7864  11.6406  11.6406
    19.7495  19.7495  19.8484  19.8484  19.8873  19.8873  20.0676  20.0676
    20.3115  20.3115  20.3295  20.3295  20.3883  20.3883  20.4842  20.4842
    20.6151  20.6151  20.6303  20.6303  32.7586  32.7586  34.1312  34.1312
    37.7256  37.7256  38.6227  38.6227  39.0208  39.0208  39.6288  39.6288
    39.8920  39.8920  40.3219  40.3219  40.7078  40.7078  40.9848  40.9848
    42.3373  42.3373  42.7257  42.7257  44.2713  44.2713  44.7022  44.7022
    45.1683  45.1683  46.4453  46.4453  46.6951  46.6951  47.5638  47.5638
    47.6722  47.6722  48.4345  48.4345  49.6715  49.6715  50.3556  50.3556
    50.5697  50.5697  52.4861  52.4861  53.8208  53.8208  54.2131  54.2131
    54.8058  54.8058  55.5862  55.5862  56.5085  56.5085  56.6285  56.6285
    57.9436  57.9436  58.1978  58.1979  58.4714  58.4715  59.0775  59.0776
    59.8246  59.8247  59.9648  59.9648  60.6642  60.6643  61.0695  61.0700
    61.9179  61.9195

          k = 0.0000 0.2533 0.0000 (  3664 PWs)   bands (ev):

   -83.9255 -83.9196 -83.8533 -83.8095 -39.7206 -39.7134 -39.7059 -39.7034
   -39.6990 -39.6907 -39.6863 -39.6827 -39.5194 -39.5185 -39.4956 -39.4940
   -18.9096 -18.7301 -18.5663 -18.5641 -18.2784 -18.0908 -18.0741 -18.0079
     8.0094   8.2883   8.4776   8.4801   8.5088   8.6479   8.7446   8.7907
     9.0467   9.2818   9.3242   9.5633   9.6333  10.0126  10.2127  10.2266
    10.2424  10.4976  10.5292  10.5681  10.6324  10.9545  10.9923  11.2082
    19.7972  19.8737  19.8866  19.9157  19.9639  20.1388  20.1429  20.1915
    20.2076  20.2280  20.3250  20.3479  20.3636  20.3757  20.5655  20.6365
    20.6569  20.6879  20.7169  20.7701  32.8532  33.6730  34.5727  35.0076
    37.4072  37.4285  37.7164  38.3503  38.4956  38.5261  39.0234  39.4388
    39.4820  39.6116  39.9119  41.0182  41.0233  41.6661  41.7018  41.7227
    42.3330  42.6080  43.0429  43.1622  43.2925  43.6735  43.7331  44.2084
    44.7400  44.8361  45.7992  46.1718  46.3760  46.4811  46.5975  47.2786
    47.7584  47.8813  48.0422  48.1991  48.5032  48.5634  49.1515  50.0799
    50.8380  50.8948  51.7835  52.7932  53.9335  55.1933  55.6832  55.7204
    56.4383  56.5078  56.6263  56.6827  56.8649  57.1020  57.1620  57.7953
    57.8173  58.0783  58.1329  58.1741  58.4112  58.7264  58.8812  59.1633
    59.4128  59.4530  59.5952  59.9737  60.1364  60.3041  60.5966  60.6999
    61.2749  61.6638

          k = 0.0000 0.2533 0.1317 (  3669 PWs)   bands (ev):

   -83.9130 -83.9101 -83.8778 -83.8429 -39.7161 -39.7124 -39.7031 -39.7005
   -39.6978 -39.6966 -39.6947 -39.6838 -39.5236 -39.5204 -39.5039 -39.4934
   -18.8856 -18.7547 -18.5924 -18.5599 -18.2385 -18.0988 -18.0765 -18.0198
     8.0537   8.3024   8.3268   8.4434   8.5738   8.6596   8.8017   8.8980
     9.0899   9.2268   9.3966   9.4985   9.6912  10.0285  10.1279  10.1917
    10.3233  10.3970  10.4185  10.4754  10.7218  10.9258  11.0377  11.1938
    19.8238  19.8702  19.9496  19.9819  20.0236  20.0831  20.1225  20.1781
    20.1831  20.2410  20.2609  20.3206  20.3958  20.4987  20.5535  20.5862
    20.5899  20.7098  20.7159  20.7642  33.1072  33.7345  34.6022  34.8848
    37.1945  37.5718  37.8024  38.2970  38.4170  38.4337  39.0820  39.3827
    39.4705  39.6060  39.9638  40.6997  41.0882  41.2216  41.5462  41.9512
    42.0021  42.3662  42.8930  43.3367  43.5640  43.6535  44.1860  44.5053
    44.8093  44.8398  45.1204  45.7822  45.9582  46.6458  46.6573  47.2454
    47.5485  47.8240  48.0849  48.4006  48.8634  49.8504  50.2422  50.5114
    50.6102  50.7627  51.7131  52.6353  53.9260  54.6766  55.1696  55.6622
    55.9381  56.1595  56.3574  56.4640  56.9707  57.2241  57.3889  57.3944
    57.6970  58.0841  58.5300  58.5500  58.6796  58.8068  58.8170  59.2963
    59.4403  59.6761  59.8081  59.8827  60.3544  60.4382  61.0390  61.1896
    61.3093  61.5778

          k = 0.0000 0.2533-0.2634 (  3666 PWs)   bands (ev):

   -83.8991 -83.8991 -83.8660 -83.8660 -39.7097 -39.7097 -39.7031 -39.7031
   -39.7005 -39.7005 -39.6859 -39.6859 -39.5215 -39.5215 -39.4980 -39.4980
   -18.8221 -18.8221 -18.5835 -18.5835 -18.1604 -18.1604 -18.0468 -18.0468
     8.1763   8.1763   8.3573   8.3573   8.6291   8.6291   8.9893   8.9893
     9.0761   9.0761   9.4806   9.4806   9.9351   9.9351  10.0626  10.0626
    10.2961  10.2961  10.4160  10.4160  10.8304  10.8304  11.1314  11.1314
    19.9283  19.9283  19.9292  19.9292  20.0988  20.0988  20.1118  20.1118
    20.1884  20.1884  20.3582  20.3582  20.4223  20.4223  20.5312  20.5312
    20.6477  20.6477  20.7458  20.7458  33.6162  33.6162  34.6555  34.6555
    37.2819  37.2819  38.0009  38.0009  38.5184  38.5184  39.2496  39.2496
    39.4772  39.4772  40.5236  40.5236  40.6897  40.6897  41.5396  41.5396
    42.2870  42.2870  42.9449  42.9449  43.9246  43.9246  44.0063  44.0063
    44.7225  44.7225  45.9554  45.9554  46.3103  46.3103  46.7017  46.7017
    47.8366  47.8366  48.1489  48.1489  49.2610  49.2610  50.8659  50.8659
    51.9313  51.9313  52.2294  52.2294  53.4080  53.4080  54.4825  54.4825
    56.0586  56.0586  56.3307  56.3307  57.0013  57.0013  57.3842  57.3842
    58.2065  58.2066  58.7305  58.7305  59.0246  59.0247  59.2633  59.2633
    59.7681  59.7683  60.1632  60.1633  60.4497  60.4499  60.9684  60.9685
    61.2543  61.2545

          k =-0.5000 0.0000 0.0000 (  3722 PWs)   bands (ev):

   -83.9621 -83.9621 -83.9511 -83.9511 -39.7398 -39.7398 -39.7272 -39.7272
   -39.7060 -39.7060 -39.7006 -39.7006 -39.5226 -39.5226 -39.5126 -39.5126
   -18.6745 -18.6745 -18.6039 -18.6039 -18.3510 -18.3510 -17.9867 -17.9867
     7.9317   7.9317   8.2833   8.2833   8.4290   8.4290   8.8562   8.8562
     8.9072   8.9072   9.6144   9.6144  10.0203  10.0203  10.0360  10.0360
    10.5388  10.5388  10.8139  10.8139  10.9698  10.9698  11.5539  11.5539
    19.8206  19.8206  19.8435  19.8435  19.8806  19.8806  19.9593  19.9593
    20.0264  20.0264  20.0271  20.0271  20.2725  20.2725  20.5187  20.5187
    20.5671  20.5671  20.6090  20.6090  32.7280  32.7280  34.4102  34.4102
    38.1731  38.1731  39.6481  39.6481  39.6621  39.6621  40.6333  40.6333
    40.9993  40.9993  41.6227  41.6227  41.7603  41.7603  42.2016  42.2016
    42.7298  42.7298  42.8716  42.8716  43.2478  43.2478  43.9198  43.9198
    43.9696  43.9696  45.2983  45.2983  45.4243  45.4243  45.6479  45.6479
    46.0889  46.0889  48.1560  48.1560  48.2474  48.2474  49.3409  49.3409
    49.7821  49.7821  50.5348  50.5348  53.3075  53.3075  53.4219  53.4219
    54.7768  54.7768  55.0024  55.0024  55.1318  55.1318  56.6830  56.6830
    57.5427  57.5427  59.4329  59.4330  60.0283  60.0283  60.3907  60.3908
    60.6076  60.6078  60.9624  60.9625  61.2882  61.2883  61.7177  61.7179
    61.9804  61.9807

          k =-0.5000 0.0000 0.1317 (  3710 PWs)   bands (ev):

   -83.9417 -83.9417 -83.9396 -83.9396 -39.7347 -39.7347 -39.7259 -39.7259
   -39.7016 -39.7016 -39.6955 -39.6955 -39.5209 -39.5209 -39.5119 -39.5119
   -18.6696 -18.6696 -18.6055 -18.6055 -18.3512 -18.3512 -17.9869 -17.9869
     7.9219   7.9219   8.2108   8.2108   8.6651   8.6651   8.7004   8.7004
     9.1198   9.1198   9.5304   9.5304   9.7580   9.7580  10.1322  10.1322
    10.5937  10.5937  10.8242  10.8242  10.9455  10.9455  11.5485  11.5485
    19.7652  19.7652  19.8124  19.8124  19.9007  19.9007  19.9215  19.9215
    20.0947  20.0947  20.1762  20.1762  20.2866  20.2866  20.4863  20.4863
    20.5039  20.5039  20.6176  20.6176  32.8192  32.8192  34.4907  34.4907
    38.2909  38.2909  39.5632  39.5632  39.6528  39.6528  40.4947  40.4947
    40.9443  40.9443  41.1367  41.1367  41.4437  41.4437  41.8356  41.8356
    42.3429  42.3429  43.0379  43.0379  43.1966  43.1966  44.0532  44.0532
    45.0652  45.0652  45.1773  45.1773  45.6983  45.6983  46.0984  46.0984
    46.4289  46.4289  47.7035  47.7035  48.1474  48.1474  48.9912  48.9912
    49.4725  49.4725  51.6327  51.6327  52.8753  52.8753  53.6857  53.6857
    54.6663  54.6663  55.2803  55.2803  55.7184  55.7184  56.5895  56.5895
    57.5529  57.5529  58.9006  58.9006  59.2886  59.2887  59.6725  59.6726
    60.4571  60.4571  60.8789  60.8791  61.1431  61.1432  61.3730  61.3731
    62.3256  62.3266

          k =-0.5000 0.0000-0.2634 (  3680 PWs)   bands (ev):

   -83.9164 -83.9164 -83.8888 -83.8888 -39.7234 -39.7234 -39.7201 -39.7201
   -39.6936 -39.6936 -39.6852 -39.6852 -39.5121 -39.5121 -39.5114 -39.5114
   -18.6611 -18.6611 -18.6083 -18.6083 -18.3502 -18.3502 -17.9871 -17.9871
     7.9018   7.9018   8.2114   8.2114   8.6333   8.6333   8.9592   8.9592
     9.1506   9.1506   9.4842   9.4842   9.5598   9.5598  10.1013  10.1013
    10.6622  10.6622  10.8681  10.8681  10.8917  10.8917  11.5486  11.5486
    19.7305  19.7305  19.7987  19.7987  19.8977  19.8977  19.9158  19.9158
    20.2057  20.2057  20.2972  20.2972  20.3223  20.3223  20.3543  20.3543
    20.4789  20.4789  20.6103  20.6103  32.9161  32.9161  34.5834  34.5834
    38.4663  38.4663  39.4580  39.4580  39.4599  39.4599  40.2903  40.2903
    40.7882  40.7882  41.0949  41.0949  41.2020  41.2020  41.5078  41.5078
    42.6441  42.6441  42.7509  42.7509  43.3358  43.3358  43.6223  43.6223
    45.5816  45.5816  45.6937  45.6937  46.1737  46.1737  46.7049  46.7049
    46.7210  46.7210  46.8300  46.8300  47.6711  47.6711  49.2046  49.2046
    49.7826  49.7826  51.4841  51.4841  52.7490  52.7490  54.0740  54.0740
    54.8944  54.8944  55.6911  55.6911  56.1909  56.1909  56.4739  56.4739
    57.5785  57.5785  58.1476  58.1477  58.3446  58.3448  59.1764  59.1765
    59.8197  59.8198  60.5885  60.5886  61.2154  61.2155  61.4223  61.4225
    62.6061  62.6064

          k =-0.5000 0.2533 0.0000 (  3686 PWs)   bands (ev):

   -83.9215 -83.9215 -83.9046 -83.9046 -39.7365 -39.7365 -39.7260 -39.7260
   -39.6931 -39.6931 -39.6905 -39.6905 -39.5088 -39.5088 -39.5023 -39.5023
   -18.6397 -18.6397 -18.6082 -18.6082 -18.2712 -18.2712 -18.0872 -18.0872
     8.0753   8.0753   8.1671   8.1671   8.4912   8.4912   9.0072   9.0072
     9.2459   9.2459   9.5076   9.5076   9.8130   9.8130   9.9684   9.9684
    10.6206  10.6206  10.7004  10.7004  10.9154  10.9154  11.1179  11.1179
    19.7721  19.7721  19.8060  19.8060  20.0069  20.0069  20.0345  20.0345
    20.1495  20.1495  20.2558  20.2558  20.4704  20.4704  20.4785  20.4785
    20.5989  20.5989  20.6244  20.6244  33.5862  33.5862  34.5825  34.5825
    38.5927  38.5927  39.0050  39.0050  39.2989  39.2989  39.8416  39.8416
    40.7181  40.7181  41.1171  41.1171  41.5829  41.5829  42.0663  42.0663
    42.4579  42.4579  42.4840  42.4840  43.4065  43.4065  43.6647  43.6647
    44.2423  44.2423  44.6565  44.6565  44.9284  44.9284  46.4886  46.4886
    46.8503  46.8503  47.5433  47.5433  47.9835  47.9835  48.1967  48.1967
    51.0282  51.0282  51.3574  51.3574  53.3697  53.3697  53.4187  53.4187
    54.9015  54.9015  56.1998  56.1998  56.6865  56.6865  57.6668  57.6668
    57.9006  57.9006  58.8068  58.8069  58.9421  58.9422  59.3541  59.3541
    60.3274  60.3275  60.4517  60.4518  61.5096  61.5098  61.7529  61.7531
    62.5729  62.6013

          k =-0.5000 0.2533 0.1317 (  3692 PWs)   bands (ev):

   -83.9459 -83.9459 -83.8958 -83.8958 -39.7292 -39.7292 -39.7278 -39.7278
   -39.6968 -39.6968 -39.6920 -39.6920 -39.5170 -39.5170 -39.5026 -39.5026
   -18.6382 -18.6382 -18.6090 -18.6090 -18.2728 -18.2728 -18.0879 -18.0879
     8.0952   8.0952   8.2497   8.2497   8.5618   8.5618   8.8018   8.8018
     9.1705   9.1705   9.5152   9.5152   9.8703   9.8703  10.1298  10.1298
    10.5968  10.5968  10.6490  10.6490  10.8627  10.8627  11.0938  11.0938
    19.7684  19.7684  19.8385  19.8385  19.9644  19.9644  20.0216  20.0216
    20.2237  20.2237  20.2719  20.2719  20.4456  20.4456  20.4948  20.4948
    20.5825  20.5825  20.6214  20.6214  33.6651  33.6651  34.6767  34.6767
    38.6517  38.6517  38.8146  38.8146  39.3096  39.3096  40.0480  40.0480
    40.5227  40.5227  40.6759  40.6759  41.1436  41.1436  41.9894  41.9894
    42.4087  42.4087  42.5939  42.5939  43.3977  43.3977  43.7413  43.7413
    44.5308  44.5308  44.8410  44.8410  45.5573  45.5573  46.1026  46.1026
    46.9304  46.9304  47.3103  47.3103  47.9023  47.9023  48.5382  48.5382
    50.7213  50.7213  51.6547  51.6547  53.2219  53.2219  54.2524  54.2524
    55.2590  55.2590  56.2514  56.2514  56.4197  56.4197  57.3480  57.3480
    58.0300  58.0301  58.2617  58.2618  58.9648  58.9649  59.4047  59.4047
    60.3693  60.3694  60.5422  60.5422  60.9983  60.9984  61.2292  61.2293
    62.2868  62.2860

          k =-0.5000 0.2533-0.2634 (  3704 PWs)   bands (ev):

   -83.9689 -83.9689 -83.9053 -83.9053 -39.7301 -39.7301 -39.7300 -39.7300
   -39.7000 -39.7000 -39.6934 -39.6934 -39.5194 -39.5194 -39.5107 -39.5107
   -18.6352 -18.6352 -18.6109 -18.6109 -18.2759 -18.2759 -18.0892 -18.0892
     8.1086   8.1086   8.4140   8.4140   8.5480   8.5480   8.7379   8.7379
     8.9394   8.9394   9.5510   9.5510   9.9728   9.9728  10.2758  10.2758
    10.5318  10.5318  10.5751  10.5751  10.8294  10.8294  11.0707  11.0707
    19.7933  19.7933  19.8252  19.8252  19.9606  19.9606  20.0027  20.0027
    20.2796  20.2796  20.2951  20.2951  20.4421  20.4421  20.4764  20.4764
    20.5781  20.5781  20.6123  20.6123  33.7527  33.7527  34.7690  34.7690
    38.6255  38.6255  38.6469  38.6469  39.3836  39.3836  40.0341  40.0341
    40.1489  40.1489  40.9397  40.9397  41.1634  41.1634  41.4077  41.4077
    42.1600  42.1600  42.6139  42.6139  43.1975  43.1975  44.3937  44.3937
    44.5688  44.5688  44.9019  44.9019  45.7305  45.7305  46.6290  46.6290
    46.7082  46.7082  47.1898  47.1898  47.6984  47.6984  48.7384  48.7384
    50.7031  50.7031  51.6203  51.6203  53.1574  53.1575  55.3352  55.3352
    55.8746  55.8746  56.2529  56.2529  56.4568  56.4568  56.7811  56.7811
    57.4432  57.4432  58.0523  58.0523  58.4777  58.4778  59.6586  59.6586
    59.8993  59.8993  60.2897  60.2897  60.7164  60.7165  61.5785  61.5788
    62.2848  62.2845

     the Fermi energy is    55.6909 ev

!    total energy              =   -3408.92045690 Ry
     Harris-Foulkes estimate   =   -3408.92049060 Ry
     estimated scf accuracy    <       0.00003888 Ry

     The total energy is the sum of the following terms:

     one-electron contribution =      53.76841887 Ry
     hartree contribution      =     332.20512016 Ry
     xc contribution           =    -314.18079532 Ry
     ewald contribution        =   -3480.33689771 Ry
     smearing contrib. (-TS)   =      -0.37630291 Ry

     convergence has been achieved in  10 iterations

     Forces acting on atoms (Ry/au):

     atom    1 type  1   force =     0.00000000   -0.06767984   -0.09236499
     atom    2 type  1   force =     0.00000000    0.06767984    0.09236499
     atom    3 type  1   force =     0.00000000   -0.06767984    0.09236499
     atom    4 type  1   force =     0.00000000    0.06767984   -0.09236499
     atom    5 type  1   force =     0.00000000    0.16205488   -0.27392795
     atom    6 type  1   force =     0.00000000   -0.16205488    0.27392795
     atom    7 type  1   force =     0.00000000    0.16205488    0.27392795
     atom    8 type  1   force =     0.00000000   -0.16205488   -0.27392795
     atom    9 type  2   force =     0.00000000   -0.17404846   -0.01174186
     atom   10 type  2   force =     0.00000000    0.17404846    0.01174186
     atom   11 type  2   force =     0.00000000   -0.17404846    0.01174186
     atom   12 type  2   force =     0.00000000    0.17404846   -0.01174186

     Total force =     0.761159     Total SCF correction =     0.000000


     entering subroutine stress ...

          total   stress  (Ry/bohr**3)                   (kbar)     P= 7068.67
   0.04948694   0.00000000   0.00000000       7279.78      0.00      0.00
   0.00000000   0.04593545   0.00000000          0.00   6757.34      0.00
   0.00000000   0.00000000   0.04873322          0.00      0.00   7168.90


     BFGS Geometry Optimization

     number of scf cycles    =   1
     number of bfgs steps    =   0

     enthalpy new            =   -3408.9204569004 Ry

     new trust radius        =       0.5000000000 bohr
     new conv_thr            =       0.0001000000 Ry

     new unit-cell volume =   1094.28130 a.u.^3 (   162.15576 Ang^3 )

CELL_PARAMETERS (alat=  7.01510508)
   1.085136619   0.000000000   0.000000000
   0.000000000   1.419959616   0.000000000
   0.000000000   0.000000000   2.057150293

ATOMIC_POSITIONS (crystal)
Co       0.750000000   0.825896493   0.435258627
Co       0.250000000   0.174103507   0.564741373
Co       0.750000000   0.325896493   0.064741373
Co       0.250000000   0.674103507   0.935258627
Co       0.250000000   0.538294008   0.280929248
Co       0.750000000   0.461705992   0.719070752
Co       0.250000000   0.038294008   0.219070752
Co       0.750000000   0.961705992   0.780929248
Si       0.250000000   0.201556588   0.893539314
Si       0.750000000   0.798443412   0.106460686
Si       0.250000000   0.701556588   0.606460686
Si       0.750000000   0.298443412   0.393539314



     Writing output data file Prototype-La-oP12-Co2Si.save
     NEW-OLD atomic charge density approx. for the potential
     NEW k-points:
        k(    1) = (   0.0000000   0.0000000   0.0000000), wk =   0.0833333
        k(    2) = (   0.0000000   0.0000000   0.1215273), wk =   0.1666667
        k(    3) = (   0.0000000   0.0000000  -0.2430547), wk =   0.0833333
        k(    4) = (   0.0000000   0.2347485   0.0000000), wk =   0.1666667
        k(    5) = (   0.0000000   0.2347485   0.1215273), wk =   0.3333333
        k(    6) = (   0.0000000   0.2347485  -0.2430547), wk =   0.1666667
        k(    7) = (  -0.4607715   0.0000000   0.0000000), wk =   0.0833333
        k(    8) = (  -0.4607715   0.0000000   0.1215273), wk =   0.1666667
        k(    9) = (  -0.4607715   0.0000000  -0.2430547), wk =   0.0833333
        k(   10) = (  -0.4607715   0.2347485   0.0000000), wk =   0.1666667
        k(   11) = (  -0.4607715   0.2347485   0.1215273), wk =   0.3333333
        k(   12) = (  -0.4607715   0.2347485  -0.2430547), wk =   0.1666667

     total cpu time spent up to now is      230.2 secs

     Self-consistent Calculation

     iteration #  1     ecut=    40.00 Ry     beta=0.70
     CG style diagonalization
     c_bands:  3 eigenvalues not converged
     c_bands:  3 eigenvalues not converged
     c_bands:  5 eigenvalues not converged
     c_bands:  3 eigenvalues not converged
     c_bands:  4 eigenvalues not converged
     c_bands:  4 eigenvalues not converged
     c_bands:  1 eigenvalues not converged
     c_bands:  2 eigenvalues not converged
     ethr =  1.00E-06,  avg # of iterations = 22.6

     total cpu time spent up to now is      293.8 secs

     total energy              =   -3403.79197745 Ry
     Harris-Foulkes estimate   =   -3433.84092885 Ry
     estimated scf accuracy    <      38.30055282 Ry

     iteration #  2     ecut=    40.00 Ry     beta=0.70
     CG style diagonalization
     ethr =  1.00E-02,  avg # of iterations =  3.9

     total cpu time spent up to now is      305.0 secs

     total energy              =   -3414.50419738 Ry
     Harris-Foulkes estimate   =   -3417.17260332 Ry
     estimated scf accuracy    <       3.96097830 Ry

     iteration #  3     ecut=    40.00 Ry     beta=0.70
     CG style diagonalization
     ethr =  1.62E-03,  avg # of iterations =  3.8

     total cpu time spent up to now is      315.7 secs

     total energy              =   -3415.55245941 Ry
     Harris-Foulkes estimate   =   -3415.74187597 Ry
     estimated scf accuracy    <       0.32211979 Ry

     iteration #  4     ecut=    40.00 Ry     beta=0.70
     CG style diagonalization
     c_bands:  1 eigenvalues not converged
     ethr =  1.32E-04,  avg # of iterations =  3.8

     total cpu time spent up to now is      326.3 secs

     total energy              =   -3415.64161849 Ry
     Harris-Foulkes estimate   =   -3415.64846454 Ry
     estimated scf accuracy    <       0.01051506 Ry

     iteration #  5     ecut=    40.00 Ry     beta=0.70
     CG style diagonalization
     c_bands:  1 eigenvalues not converged
     c_bands:  1 eigenvalues not converged
     ethr =  4.31E-06,  avg # of iterations =  4.7

     total cpu time spent up to now is      340.5 secs

     total energy              =   -3415.64673645 Ry
     Harris-Foulkes estimate   =   -3415.64861615 Ry
     estimated scf accuracy    <       0.00349081 Ry

     iteration #  6     ecut=    40.00 Ry     beta=0.70
     CG style diagonalization
     c_bands:  1 eigenvalues not converged
     ethr =  1.43E-06,  avg # of iterations =  3.6

     total cpu time spent up to now is      351.2 secs

     total energy              =   -3415.64740891 Ry
     Harris-Foulkes estimate   =   -3415.64750723 Ry
     estimated scf accuracy    <       0.00017557 Ry

     iteration #  7     ecut=    40.00 Ry     beta=0.70
     CG style diagonalization
     ethr =  7.20E-08,  avg # of iterations =  3.8

     total cpu time spent up to now is      361.6 secs

     End of self-consistent calculation

          k = 0.0000 0.0000 0.0000 (  3675 PWs)   bands (ev):

   -94.2878 -94.2342 -94.2181 -94.1699 -51.2350 -51.2342 -51.2303 -51.2213
   -51.2200 -51.2199 -51.2193 -51.2157 -51.1214 -51.1192 -51.1152 -51.1062
   -28.6875 -28.6074 -28.5612 -28.5564 -28.3152 -28.2407 -28.1205 -28.1204
    -0.7945  -0.6151  -0.6026  -0.3974  -0.3918  -0.3562  -0.3115  -0.3064
    -0.1540  -0.1118   0.0771   0.2457   0.2637   0.2869   0.3054   0.3743
     0.4928   0.5045   0.6375   0.6376   0.7864   0.9185   1.2763   1.3395
     9.0012   9.0374   9.0645   9.0760   9.0923   9.0930   9.0970   9.1180
     9.1226   9.1283   9.1717   9.1803   9.1843   9.2580   9.2920   9.3261
     9.3316   9.3347   9.3518   9.3870  22.3205  23.7968  24.4301  24.9724
    28.5030  28.7859  29.1251  29.7364  29.8672  29.9006  30.5080  30.7436
    30.8864  31.0476  31.1109  31.2350  31.6139  31.8982  32.0330  32.4801
    32.5889  32.7846  33.2736  34.0387  34.3040  34.3303  34.5201  34.8179
    35.0894  35.4696  35.5243  35.6956  35.7324  35.9456  35.9466  36.0221
    36.5900  36.5993  36.6606  37.1201  37.4923  37.5596  38.2851  38.6968
    39.0497  39.1782  39.4698  40.0210  40.7823  41.2936  41.5075  42.5072
    42.5996  42.7169  43.8275  45.5255  45.6417  45.7550  45.9686  46.1628
    46.4340  46.7750  46.8126  46.8130  46.8550  47.0927  47.2127  47.3874
    47.8147  47.8219  48.0131  48.2032  48.2883  48.3548  48.4109  48.5192
    48.6020  49.3450

          k = 0.0000 0.0000 0.1215 (  3675 PWs)   bands (ev):

   -94.3107 -94.2218 -94.2135 -94.1674 -51.2323 -51.2286 -51.2280 -51.2256
   -51.2241 -51.2194 -51.2182 -51.2144 -51.1247 -51.1231 -51.1120 -51.1081
   -28.6736 -28.6211 -28.5632 -28.5568 -28.3042 -28.2617 -28.1251 -28.1051
    -0.7643  -0.6154  -0.5850  -0.4675  -0.4397  -0.3515  -0.3407  -0.2113
    -0.1470  -0.0529   0.0463   0.1669   0.2822   0.3007   0.3241   0.3476
     0.5145   0.5447   0.6330   0.7059   0.7367   0.8700   1.2808   1.3215
     9.0139   9.0209   9.0654   9.0804   9.0916   9.1095   9.1147   9.1164
     9.1313   9.1416   9.1624   9.1671   9.2368   9.2449   9.2789   9.2866
     9.3321   9.3419   9.3498   9.3655  22.5292  23.5867  24.4763  24.8855
    28.6393  28.9695  29.2298  29.5610  29.8550  29.8945  30.5582  30.6326
    30.7073  31.0021  31.2007  31.2073  31.5358  31.7622  31.8365  31.9935
    32.9112  32.9273  33.1677  33.4102  34.2675  34.6801  34.7403  34.8648
    35.0140  35.0787  35.3454  35.5538  35.5637  36.3705  36.5649  36.5998
    36.6628  36.7658  36.9091  37.2493  37.3677  38.0573  38.1516  38.5238
    39.2762  39.4003  39.8460  39.9740  40.6520  41.2973  41.6254  41.7564
    42.5212  43.0050  43.2354  44.5548  44.5789  44.8955  45.4435  46.2176
    46.3296  46.6011  47.0429  47.1630  47.2614  47.4272  47.5918  47.6080
    47.8827  47.8904  48.2332  48.4062  48.4189  48.4612  48.8063  49.0317
    49.4033  49.4279

          k = 0.0000 0.0000-0.2431 (  3690 PWs)   bands (ev):

   -94.3032 -94.3032 -94.2132 -94.2132 -51.2291 -51.2291 -51.2258 -51.2258
   -51.2239 -51.2239 -51.2207 -51.2207 -51.1306 -51.1306 -51.1127 -51.1127
   -28.6568 -28.6568 -28.5625 -28.5625 -28.2793 -28.2793 -28.1210 -28.1210
    -0.6924  -0.6924  -0.5396  -0.5396  -0.4230  -0.4230  -0.2441  -0.2441
    -0.0582  -0.0582   0.0660   0.0660   0.3100   0.3100   0.3111   0.3111
     0.6028   0.6028   0.6087   0.6087   0.7668   0.7668   1.2936   1.2936
     9.0295   9.0295   9.0407   9.0407   9.0774   9.0774   9.1442   9.1442
     9.1780   9.1780   9.1890   9.1890   9.2074   9.2074   9.2678   9.2678
     9.3338   9.3338   9.3348   9.3348  23.0476  23.0476  24.6679  24.6679
    29.0298  29.0298  29.3239  29.3239  29.8979  29.8979  30.3053  30.3053
    30.8521  30.8521  31.3242  31.3242  31.6561  31.6561  31.7706  31.7706
    32.8886  32.8886  32.9372  32.9372  34.2929  34.2929  34.7863  34.7863
    35.2564  35.2564  35.6087  35.6087  35.9803  35.9803  36.6934  36.6934
    36.8917  36.8917  37.3805  37.3805  37.9366  37.9366  38.7523  38.7523
    38.9101  38.9101  40.0821  40.0821  41.2242  41.2242  41.4933  41.4933
    42.1157  42.1157  44.0990  44.0990  44.2474  44.2474  44.8554  44.8554
    46.3301  46.3301  47.0939  47.0939  47.4495  47.4495  48.0711  48.0711
    48.1311  48.1311  48.4234  48.4234  49.0655  49.0655  49.3371  49.3371
    49.6452  49.6454

          k = 0.0000 0.2347 0.0000 (  3664 PWs)   bands (ev):

   -94.2783 -94.2714 -94.1613 -94.0969 -51.2365 -51.2316 -51.2267 -51.2236
   -51.2207 -51.2191 -51.2151 -51.2129 -51.1201 -51.1194 -51.1085 -51.1085
   -28.6543 -28.6191 -28.5621 -28.5515 -28.2603 -28.2217 -28.1676 -28.1467
    -0.6551  -0.5608  -0.4578  -0.4330  -0.4297  -0.3394  -0.2943  -0.2724
    -0.1958  -0.0590   0.0279   0.1286   0.1408   0.3876   0.4752   0.4808
     0.4956   0.5928   0.6550   0.6679   0.6942   0.8753   0.9584   1.0434
     9.0431   9.0452   9.0599   9.0745   9.1164   9.1173   9.1664   9.1727
     9.1883   9.1893   9.2086   9.2235   9.2261   9.2547   9.3006   9.3101
     9.3131   9.3612   9.3668   9.3872  23.0988  24.3263  24.4304  24.9616
    28.5937  28.7498  28.9382  29.1787  29.1900  29.5450  29.9762  29.9798
    30.5556  31.1548  31.2025  31.6065  31.8863  32.0777  32.3148  32.4193
    32.6572  32.9670  33.3020  33.3809  33.4640  33.6392  34.0362  34.1830
    34.7172  34.9299  35.3337  35.6502  35.8920  35.9671  36.1233  36.7290
    36.8697  36.9509  37.0046  37.2091  37.2523  37.4575  37.8359  38.7773
    39.2235  39.2273  39.5705  40.4010  41.4954  42.6375  42.8481  43.5055
    43.6530  43.7385  44.0603  44.3958  44.7132  44.9416  45.2929  45.7224
    45.7788  45.9480  46.6598  46.6639  46.6791  47.2415  47.3376  47.5704
    47.6952  48.0263  48.2118  48.2261  48.4649  48.6818  48.6897  49.2153
    49.2253  49.6351

          k = 0.0000 0.2347 0.1215 (  3669 PWs)   bands (ev):

   -94.2612 -94.2542 -94.1996 -94.1466 -51.2341 -51.2312 -51.2233 -51.2226
   -51.2224 -51.2211 -51.2187 -51.2134 -51.1224 -51.1207 -51.1130 -51.1077
   -28.6500 -28.6207 -28.5676 -28.5590 -28.2557 -28.2285 -28.1632 -28.1530
    -0.6443  -0.5554  -0.5175  -0.4707  -0.4023  -0.3426  -0.2739  -0.2297
    -0.1711  -0.0772   0.0470   0.1140   0.1694   0.4046   0.4437   0.4547
     0.5213   0.5793   0.6003   0.6104   0.7544   0.8540   0.9786   1.0346
     9.0535   9.0566   9.0717   9.0958   9.1145   9.1278   9.1385   9.1471
     9.1790   9.1815   9.2076   9.2150   9.2477   9.2514   9.2974   9.3135
     9.3149   9.3526   9.3605   9.3792  23.2775  24.1377  24.5637  24.8830
    28.4571  28.7431  28.8722  29.1386  29.4253  29.4755  29.8479  30.1000
    30.5278  30.9588  31.3333  31.3972  31.8297  32.0117  32.1780  32.3201
    32.5593  32.7831  33.4001  33.5412  33.8104  33.8538  34.2458  34.4337
    34.5850  34.8415  34.8697  35.5906  35.6742  36.0072  36.1762  36.5389
    36.8740  36.9038  37.1197  37.3070  37.7195  38.1032  38.5375  38.9779
    39.0367  39.2000  39.6287  40.3809  41.4769  41.9252  42.5082  42.8500
    43.0699  43.6034  43.8029  44.3530  44.5509  45.0622  45.4131  45.7239
    46.0934  46.4254  46.5574  46.9956  47.0755  47.1419  47.2234  47.7179
    47.7506  48.1818  48.3675  48.3915  48.6408  48.6510  49.2140  49.2321
    49.3830  49.7505

          k = 0.0000 0.2347-0.2431 (  3666 PWs)   bands (ev):

   -94.2353 -94.2353 -94.1838 -94.1838 -51.2301 -51.2301 -51.2250 -51.2250
   -51.2211 -51.2211 -51.2147 -51.2147 -51.1210 -51.1210 -51.1101 -51.1101
   -28.6340 -28.6340 -28.5663 -28.5663 -28.2372 -28.2372 -28.1594 -28.1594
    -0.5868  -0.5868  -0.5206  -0.5206  -0.3703  -0.3703  -0.2058  -0.2058
    -0.1449  -0.1449   0.0906   0.0906   0.3139   0.3139   0.4227   0.4227
     0.5549   0.5549   0.5717   0.5717   0.8042   0.8042   1.0137   1.0137
     9.0822   9.0822   9.0921   9.0921   9.1014   9.1014   9.1544   9.1544
     9.1727   9.1727   9.2156   9.2156   9.2381   9.2381   9.3064   9.3064
     9.3372   9.3372   9.3646   9.3646  23.7157  23.7157  24.7452  24.7452
    28.4304  28.4304  29.1851  29.1851  29.3669  29.3669  30.0025  30.0025
    30.6620  30.6620  31.3981  31.3981  31.7954  31.7954  32.0991  32.0991
    32.6232  32.6232  33.4897  33.4897  34.1107  34.1107  34.3102  34.3102
    34.5514  34.5514  35.5838  35.5838  35.8365  35.8365  36.0739  36.0739
    37.0688  37.0688  37.1613  37.1613  37.9291  37.9291  39.2557  39.2557
    39.8105  39.8105  40.0213  40.0213  40.8823  40.8823  41.9246  41.9246
    43.1718  43.1718  44.0014  44.0014  45.1518  45.1518  45.6324  45.6324
    46.2261  46.2261  46.5718  46.5718  47.3168  47.3168  47.6406  47.6406
    47.9507  47.9507  48.9073  48.9074  49.1345  49.1347  49.1584  49.1584
    49.4665  49.4668

          k =-0.4608 0.0000 0.0000 (  3722 PWs)   bands (ev):

   -94.3408 -94.3408 -94.3204 -94.3204 -51.2429 -51.2429 -51.2371 -51.2371
   -51.2258 -51.2258 -51.2230 -51.2230 -51.1233 -51.1233 -51.1187 -51.1187
   -28.6065 -28.6065 -28.5935 -28.5935 -28.3146 -28.3146 -28.1379 -28.1379
    -0.7097  -0.7097  -0.5807  -0.5807  -0.4971  -0.4971  -0.2842  -0.2842
    -0.2306  -0.2306   0.0716   0.0716   0.3158   0.3158   0.3939   0.3939
     0.6321   0.6321   0.7534   0.7534   0.8398   0.8398   1.2719   1.2719
     8.9658   8.9658   8.9903   8.9903   9.0435   9.0435   9.0539   9.0539
     9.1159   9.1159   9.1330   9.1330   9.1887   9.1887   9.2947   9.2947
     9.3250   9.3250   9.3399   9.3399  23.8027  23.8027  24.3280  24.3280
    29.1509  29.1509  30.3067  30.3067  30.4617  30.4617  31.4321  31.4321
    31.7610  31.7610  32.1027  32.1027  32.2227  32.2227  32.4183  32.4183
    33.0636  33.0636  33.1470  33.1470  33.3882  33.3882  33.7727  33.7727
    34.1423  34.1423  34.8234  34.8234  35.0039  35.0039  35.3547  35.3547
    35.5864  35.5864  36.7789  36.7789  37.0398  37.0398  37.9164  37.9164
    38.7432  38.7432  39.0838  39.0838  40.9096  40.9096  41.2786  41.2786
    42.5610  42.5610  42.6464  42.6464  44.6081  44.6081  45.9325  45.9325
    46.3850  46.3850  47.2322  47.2322  47.3979  47.3979  48.5634  48.5634
    48.7423  48.7423  48.8142  48.8142  48.9022  48.9022  49.6152  49.6152
    49.9399  49.9399

          k =-0.4608 0.0000 0.1215 (  3710 PWs)   bands (ev):

   -94.3061 -94.3061 -94.3029 -94.3029 -51.2400 -51.2400 -51.2363 -51.2363
   -51.2242 -51.2242 -51.2198 -51.2198 -51.1227 -51.1227 -51.1180 -51.1180
   -28.6052 -28.6052 -28.5883 -28.5883 -28.3100 -28.3100 -28.1358 -28.1358
    -0.7093  -0.7093  -0.6208  -0.6208  -0.3740  -0.3740  -0.3615  -0.3615
    -0.1262  -0.1262   0.0505   0.0505   0.1891   0.1891   0.4613   0.4613
     0.6359   0.6359   0.7638   0.7638   0.8325   0.8325   1.2676   1.2676
     8.9594   8.9594   8.9783   8.9783   9.0462   9.0462   9.0740   9.0740
     9.1177   9.1177   9.1655   9.1655   9.1956   9.1956   9.2773   9.2773
     9.3171   9.3171   9.3527   9.3527  23.8293  23.8293  24.3746  24.3746
    29.0822  29.0822  30.2053  30.2053  30.5154  30.5154  31.2821  31.2821
    31.6925  31.6925  32.0357  32.0357  32.2188  32.2188  32.2823  32.2823
    32.9145  32.9145  33.1898  33.1898  33.3631  33.3631  33.6240  33.6240
    34.5839  34.5839  34.9699  34.9699  35.2355  35.2355  35.6344  35.6344
    35.8093  35.8093  36.5477  36.5477  36.9202  36.9202  37.8338  37.8338
    38.4677  38.4677  39.7518  39.7518  40.6747  40.6747  40.9732  40.9732
    42.4627  42.4627  43.2709  43.2709  44.9637  44.9637  45.9887  45.9887
    46.0543  46.0543  46.3096  46.3096  47.1769  47.1769  48.2491  48.2491
    48.6253  48.6253  48.8218  48.8218  49.3107  49.3107  49.4120  49.4120
    49.8181  49.8183

          k =-0.4608 0.0000-0.2431 (  3680 PWs)   bands (ev):

   -94.2653 -94.2653 -94.2184 -94.2184 -51.2335 -51.2335 -51.2334 -51.2334
   -51.2190 -51.2190 -51.2137 -51.2137 -51.1178 -51.1178 -51.1171 -51.1171
   -28.5930 -28.5930 -28.5849 -28.5849 -28.2968 -28.2968 -28.1351 -28.1351
    -0.7197  -0.7197  -0.6137  -0.6137  -0.3986  -0.3986  -0.2379  -0.2379
    -0.0428  -0.0428   0.0292   0.0292   0.0588   0.0588   0.4799   0.4799
     0.6448   0.6448   0.7822   0.7822   0.8365   0.8365   1.2750   1.2750
     8.9564   8.9564   8.9827   8.9827   9.0548   9.0548   9.0728   9.0728
     9.1492   9.1492   9.1973   9.1973   9.2207   9.2207   9.2351   9.2351
     9.3146   9.3146   9.3654   9.3654  23.8568  23.8568  24.4363  24.4363
    28.9951  28.9951  30.2067  30.2067  30.3793  30.3793  31.3252  31.3252
    31.7504  31.7504  31.8269  31.8269  32.1608  32.1608  32.3442  32.3442
    32.6801  32.6801  33.1065  33.1065  33.4045  33.4045  33.4815  33.4815
    34.9293  34.9293  35.3462  35.3462  35.4361  35.4361  35.8487  35.8487
    35.9466  35.9466  36.3643  36.3643  36.6453  36.6453  37.9920  37.9920
    38.6324  38.6324  39.5779  39.5779  40.4432  40.4432  40.9792  40.9792
    42.4244  42.4244  44.0716  44.0716  45.3883  45.3883  45.5760  45.5760
    45.7373  45.7373  46.1050  46.1050  46.5907  46.5907  47.7099  47.7099
    48.4804  48.4804  48.6169  48.6169  49.0375  49.0375  49.7835  49.7835
    49.8287  49.8287

          k =-0.4608 0.2347 0.0000 (  3686 PWs)   bands (ev):

   -94.2729 -94.2729 -94.2457 -94.2457 -51.2414 -51.2414 -51.2360 -51.2360
   -51.2180 -51.2180 -51.2164 -51.2164 -51.1149 -51.1149 -51.1117 -51.1117
   -28.5913 -28.5913 -28.5901 -28.5901 -28.2622 -28.2622 -28.1763 -28.1763
    -0.6529  -0.6529  -0.5990  -0.5990  -0.4579  -0.4579  -0.2465  -0.2465
    -0.0378  -0.0378   0.0694   0.0694   0.2679   0.2679   0.3704   0.3704
     0.6388   0.6388   0.7422   0.7422   0.8506   0.8506   1.0040   1.0040
     8.9755   8.9755   8.9798   8.9798   9.0717   9.0717   9.0769   9.0769
     9.1621   9.1621   9.2098   9.2098   9.2760   9.2760   9.2810   9.2810
     9.3426   9.3426   9.3598   9.3598  24.2918  24.2918  24.5787  24.5787
    29.1819  29.1819  29.6042  29.6042  30.1275  30.1275  30.7636  30.7636
    31.8012  31.8012  31.8488  31.8488  32.2669  32.2669  32.4338  32.4338
    32.5954  32.5954  32.8587  32.8587  33.5187  33.5187  33.6398  33.6398
    34.3136  34.3136  34.6636  34.6636  34.7964  34.7964  35.7739  35.7739
    36.1510  36.1510  36.7528  36.7528  36.7796  36.7796  37.2873  37.2873
    39.2461  39.2461  39.4663  39.4663  40.9148  40.9148  41.0868  41.0868
    43.4183  43.4183  45.2142  45.2142  45.2634  45.2634  45.5678  45.5678
    46.1883  46.1883  46.6544  46.6544  47.1170  47.1170  47.3360  47.3360
    48.3503  48.3503  49.1735  49.1735  49.3541  49.3541  49.9854  49.9854
    50.2792  50.2792

          k =-0.4608 0.2347 0.1215 (  3692 PWs)   bands (ev):

   -94.3118 -94.3118 -94.2307 -94.2307 -51.2380 -51.2380 -51.2366 -51.2366
   -51.2202 -51.2202 -51.2172 -51.2172 -51.1198 -51.1198 -51.1118 -51.1118
   -28.5955 -28.5955 -28.5895 -28.5895 -28.2635 -28.2635 -28.1764 -28.1764
    -0.6451  -0.6451  -0.5626  -0.5626  -0.4248  -0.4248  -0.3240  -0.3240
    -0.0683  -0.0683   0.0548   0.0548   0.2870   0.2870   0.4512   0.4512
     0.6349   0.6349   0.7015   0.7015   0.8302   0.8302   0.9939   0.9939
     8.9721   8.9721   8.9807   8.9807   9.0687   9.0687   9.0836   9.0836
     9.1749   9.1749   9.2126   9.2126   9.2644   9.2644   9.2793   9.2793
     9.3424   9.3424   9.3519   9.3519  24.3074  24.3074  24.6217  24.6217
    29.1076  29.1076  29.5325  29.5325  30.2738  30.2738  30.8435  30.8435
    31.4139  31.4139  31.7209  31.7209  31.9770  31.9770  32.3261  32.3261
    32.6286  32.6286  33.1089  33.1089  33.3889  33.3889  33.9092  33.9092
    34.4784  34.4784  34.7020  34.7020  35.2325  35.2325  35.6320  35.6320
    36.2098  36.2098  36.4880  36.4880  36.7917  36.7917  37.4868  37.4868
    39.0792  39.0792  39.6899  39.6899  40.7897  40.7897  41.6537  41.6537
    43.0784  43.0784  44.7715  44.7715  45.2634  45.2634  45.5759  45.5759
    46.0573  46.0573  46.5287  46.5287  46.9456  46.9456  47.7258  47.7258
    48.4306  48.4306  48.8678  48.8678  49.2579  49.2579  49.7609  49.7609
    50.4018  50.4019

          k =-0.4608 0.2347-0.2431 (  3704 PWs)   bands (ev):

   -94.3485 -94.3485 -94.2454 -94.2454 -51.2390 -51.2390 -51.2374 -51.2374
   -51.2220 -51.2220 -51.2185 -51.2185 -51.1213 -51.1213 -51.1166 -51.1166
   -28.5979 -28.5979 -28.5920 -28.5920 -28.2686 -28.2686 -28.1783 -28.1783
    -0.6446  -0.6446  -0.4878  -0.4878  -0.4473  -0.4473  -0.3507  -0.3507
    -0.1586  -0.1586   0.0573   0.0573   0.3258   0.3258   0.5353   0.5353
     0.5984   0.5984   0.6577   0.6577   0.8196   0.8196   0.9856   0.9856
     8.9666   8.9666   8.9801   8.9801   9.0661   9.0661   9.0881   9.0881
     9.1963   9.1963   9.2039   9.2039   9.2612   9.2612   9.2735   9.2735
     9.3376   9.3376   9.3399   9.3399  24.3253  24.3253  24.6579  24.6579
    29.0153  29.0153  29.4617  29.4617  30.5830  30.5830  30.8998  30.8998
    30.9701  30.9701  31.7451  31.7451  31.8235  31.8235  32.1359  32.1359
    32.4676  32.4676  33.2006  33.2006  33.3554  33.3554  34.3015  34.3015
    34.5337  34.5337  34.7450  34.7450  35.4805  35.4805  35.9693  35.9693
    36.0705  36.0705  36.2542  36.2542  36.7060  36.7060  37.6195  37.6195
    39.1234  39.1234  39.6449  39.6449  40.7417  40.7417  42.3917  42.3917
    43.1554  43.1554  43.6485  43.6485  45.1662  45.1662  45.5751  45.5751
    46.3550  46.3550  46.3780  46.3780  46.5418  46.5418  48.1845  48.1845
    48.3795  48.3795  48.5853  48.5853  49.2294  49.2294  49.9540  49.9540
    50.0494  50.0494

     the Fermi energy is    43.5593 ev

!    total energy              =   -3415.64745823 Ry
     Harris-Foulkes estimate   =   -3415.64747899 Ry
     estimated scf accuracy    <       0.00002344 Ry

     The total energy is the sum of the following terms:

     one-electron contribution =    -309.40431736 Ry
     hartree contribution      =     415.45004085 Ry
     xc contribution           =    -306.08737918 Ry
     ewald contribution        =   -3215.33521966 Ry
     smearing contrib. (-TS)   =      -0.27058288 Ry

     convergence has been achieved in   7 iterations

     Forces acting on atoms (Ry/au):

     atom    1 type  1   force =     0.00000000   -0.01874365   -0.04787841
     atom    2 type  1   force =     0.00000000    0.01874365    0.04787841
     atom    3 type  1   force =     0.00000000   -0.01874365    0.04787841
     atom    4 type  1   force =     0.00000000    0.01874365   -0.04787841
     atom    5 type  1   force =     0.00000000    0.08962584   -0.17156013
     atom    6 type  1   force =     0.00000000   -0.08962584    0.17156013
     atom    7 type  1   force =     0.00000000    0.08962584    0.17156013
     atom    8 type  1   force =     0.00000000   -0.08962584   -0.17156013
     atom    9 type  2   force =     0.00000000   -0.09618987   -0.02558512
     atom   10 type  2   force =     0.00000000    0.09618987    0.02558512
     atom   11 type  2   force =     0.00000000   -0.09618987    0.02558512
     atom   12 type  2   force =     0.00000000    0.09618987   -0.02558512

     Total force =     0.447287     Total SCF correction =     0.000000


     entering subroutine stress ...

          total   stress  (Ry/bohr**3)                   (kbar)     P= 1984.03
   0.01412640   0.00000000   0.00000000       2078.07      0.00      0.00
   0.00000000   0.01259411   0.00000000          0.00   1852.66      0.00
   0.00000000   0.00000000   0.01374105          0.00      0.00   2021.38


     number of scf cycles    =   2
     number of bfgs steps    =   1

     enthalpy old            =   -3408.9204569004 Ry
     enthalpy new            =   -3415.6474582298 Ry

     CASE: enthalpy_new < enthalpy_old

     small trust_radius: resetting bfgs history

     new trust radius        =       2.3365018372 bohr
     new conv_thr            =       0.0001000000 Ry

     new unit-cell volume =   2615.78140 a.u.^3 (   387.61881 Ang^3 )

CELL_PARAMETERS (alat=  7.01510508)
   1.468363591   0.000000000   0.000000000
   0.000000000   1.867037847   0.000000000
   0.000000000   0.000000000   2.763835404

ATOMIC_POSITIONS (crystal)
Co       0.750000000   0.824014821   0.431940908
Co       0.250000000   0.175985179   0.568059092
Co       0.750000000   0.324014821   0.068059092
Co       0.250000000   0.675985179   0.931940908
Co       0.250000000   0.547291534   0.269041047
Co       0.750000000   0.452708466   0.730958953
Co       0.250000000   0.047291534   0.230958953
Co       0.750000000   0.952708466   0.769041047
Si       0.250000000   0.191900101   0.891766402
Si       0.750000000   0.808099899   0.108233598
Si       0.250000000   0.691900101   0.608233598
Si       0.750000000   0.308099899   0.391766402



     Writing output data file Prototype-La-oP12-Co2Si.save
     NEW-OLD atomic charge density approx. for the potential
     NEW k-points:
        k(    1) = (   0.0000000   0.0000000   0.0000000), wk =   0.0833333
        k(    2) = (   0.0000000   0.0000000   0.0904540), wk =   0.1666667
        k(    3) = (   0.0000000   0.0000000  -0.1809080), wk =   0.0833333
        k(    4) = (   0.0000000   0.1785359   0.0000000), wk =   0.1666667
        k(    5) = (   0.0000000   0.1785359   0.0904540), wk =   0.3333333
        k(    6) = (   0.0000000   0.1785359  -0.1809080), wk =   0.1666667
        k(    7) = (  -0.3405151   0.0000000   0.0000000), wk =   0.0833333
        k(    8) = (  -0.3405151   0.0000000   0.0904540), wk =   0.1666667
        k(    9) = (  -0.3405151   0.0000000  -0.1809080), wk =   0.0833333
        k(   10) = (  -0.3405151   0.1785359   0.0000000), wk =   0.1666667
        k(   11) = (  -0.3405151   0.1785359   0.0904540), wk =   0.3333333
        k(   12) = (  -0.3405151   0.1785359  -0.1809080), wk =   0.1666667

     total cpu time spent up to now is      366.3 secs

     Self-consistent Calculation

     iteration #  1     ecut=    40.00 Ry     beta=0.70
     CG style diagonalization
     c_bands:  4 eigenvalues not converged
     c_bands:  1 eigenvalues not converged
     c_bands:  2 eigenvalues not converged
     c_bands:  5 eigenvalues not converged
     c_bands:  2 eigenvalues not converged
     c_bands:  2 eigenvalues not converged
     c_bands:  1 eigenvalues not converged
     ethr =  1.00E-06,  avg # of iterations = 33.4

     total cpu time spent up to now is      459.1 secs

     total energy              =   -3290.50048328 Ry
     Harris-Foulkes estimate   =   -3611.64137758 Ry
     estimated scf accuracy    <     406.61666022 Ry

     iteration #  2     ecut=    40.00 Ry     beta=0.70
     CG style diagonalization
     ethr =  1.00E-02,  avg # of iterations =  5.6

     total cpu time spent up to now is      475.7 secs

     total energy              =   -3370.30711728 Ry
     Harris-Foulkes estimate   =   -3406.27632674 Ry
     estimated scf accuracy    <      52.83547863 Ry

     iteration #  3     ecut=    40.00 Ry     beta=0.70
     CG style diagonalization
     ethr =  1.00E-02,  avg # of iterations =  4.3

     total cpu time spent up to now is      488.2 secs

     total energy              =   -3388.64678792 Ry
     Harris-Foulkes estimate   =   -3398.55827807 Ry
     estimated scf accuracy    <      23.32792835 Ry

     iteration #  4     ecut=    40.00 Ry     beta=0.70
     CG style diagonalization
     ethr =  9.56E-03,  avg # of iterations =  3.3

     total cpu time spent up to now is      497.6 secs

     total energy              =   -3390.94359388 Ry
     Harris-Foulkes estimate   =   -3391.63845441 Ry
     estimated scf accuracy    <       1.82258558 Ry

     iteration #  5     ecut=    40.00 Ry     beta=0.70
     CG style diagonalization
     ethr =  7.47E-04,  avg # of iterations =  3.6

     total cpu time spent up to now is      508.2 secs

     total energy              =   -3391.16705053 Ry
     Harris-Foulkes estimate   =   -3391.25765820 Ry
     estimated scf accuracy    <       0.18296154 Ry

     iteration #  6     ecut=    40.00 Ry     beta=0.70
     CG style diagonalization
     ethr =  7.50E-05,  avg # of iterations =  3.7

     total cpu time spent up to now is      519.1 secs

     total energy              =   -3391.18115638 Ry
     Harris-Foulkes estimate   =   -3391.24877933 Ry
     estimated scf accuracy    <       0.16928837 Ry

     iteration #  7     ecut=    40.00 Ry     beta=0.70
     CG style diagonalization
     ethr =  6.94E-05,  avg # of iterations =  3.3

     total cpu time spent up to now is      528.5 secs

     total energy              =   -3391.20591269 Ry
     Harris-Foulkes estimate   =   -3391.24101230 Ry
     estimated scf accuracy    <       0.11559612 Ry

     iteration #  8     ecut=    40.00 Ry     beta=0.70
     CG style diagonalization
     ethr =  4.74E-05,  avg # of iterations =  3.1

     total cpu time spent up to now is      537.4 secs

     total energy              =   -3391.22210613 Ry
     Harris-Foulkes estimate   =   -3391.22282854 Ry
     estimated scf accuracy    <       0.00142686 Ry

     iteration #  9     ecut=    40.00 Ry     beta=0.70
     CG style diagonalization
     c_bands:  1 eigenvalues not converged
     c_bands:  1 eigenvalues not converged
     c_bands:  1 eigenvalues not converged
     c_bands:  1 eigenvalues not converged
     ethr =  5.85E-07,  avg # of iterations =  3.9

     total cpu time spent up to now is      548.9 secs

     total energy              =   -3391.22249921 Ry
     Harris-Foulkes estimate   =   -3391.22255492 Ry
     estimated scf accuracy    <       0.00011893 Ry

     iteration # 10     ecut=    40.00 Ry     beta=0.70
     CG style diagonalization
     ethr =  4.87E-08,  avg # of iterations =  3.8

     total cpu time spent up to now is      559.0 secs

     End of self-consistent calculation

          k = 0.0000 0.0000 0.0000 (  3675 PWs)   bands (ev):

  -120.1642-120.1122-120.1008-120.0941 -84.1123 -83.9509 -83.9400 -83.9346
   -83.8404 -83.7706 -83.7697 -83.7625 -83.6956 -83.6757 -83.5977 -83.5636
   -49.8183 -49.7630 -49.7583 -49.6915 -49.6488 -49.6015 -49.5187 -49.4600
   -23.3925 -23.3915 -23.3873 -23.3831 -23.3715 -23.3620 -23.3581 -23.3581
   -23.3525 -23.3490 -23.3442 -23.3424 -23.3260 -23.3222 -23.2920 -23.2895
   -23.2892 -23.2887 -23.2645 -23.2626 -23.2587 -23.2519 -23.2145 -23.2112
   -16.3355 -16.1482 -16.0613 -16.0343 -15.9118 -15.9042 -15.8559 -15.8061
   -15.7973 -15.7919 -15.7882 -15.7249 -15.6978 -15.6978 -15.6089 -15.5335
   -15.3587 -15.3510 -15.3449 -15.2742   1.3836   1.6540   1.6838   1.8666
     9.2232   9.2598   9.2842   9.2937   9.5154   9.7885   9.9867   9.9952
    10.1920  10.2233  10.3326  10.6844  10.8740  10.8863  10.9775  10.9846
    11.0539  11.1063  11.2111  11.4344  11.4643  11.6118  11.6177  11.6554
    11.6577  11.6839  11.7486  11.8790  11.8933  11.9287  12.0126  12.0237
    12.0556  12.1183  12.2108  12.2108  12.3126  12.3284  12.3989  12.5657
    12.7173  12.7437  12.7612  12.7844  12.8469  12.8746  13.3116  13.3784
    13.5878  13.6232  14.0897  14.2835  14.3040  14.7627  15.8537  15.9227
    16.8662  17.5462  17.7800  17.9493  18.1103  18.1774  18.8485  19.2091
    19.2804  19.3443  19.5258  19.7053  19.7118  19.9305  20.6733  20.7864
    20.9228  21.2846

          k = 0.0000 0.0000 0.0905 (  3675 PWs)   bands (ev):

  -120.1733-120.1351-120.0980-120.0733 -84.0911 -84.0168 -83.9789 -83.9638
   -83.8553 -83.7842 -83.7695 -83.6688 -83.6680 -83.6497 -83.6245 -83.5163
   -49.8335 -49.7945 -49.7515 -49.6811 -49.5947 -49.5906 -49.5783 -49.4331
   -23.3916 -23.3895 -23.3883 -23.3848 -23.3693 -23.3642 -23.3596 -23.3566
   -23.3562 -23.3495 -23.3459 -23.3429 -23.3249 -23.3233 -23.2919 -23.2895
   -23.2885 -23.2868 -23.2662 -23.2642 -23.2551 -23.2501 -23.2172 -23.2135
   -16.2016 -16.1686 -16.0868 -16.0839 -16.0250 -16.0138 -15.9662 -15.9464
   -15.8051 -15.7770 -15.7663 -15.7653 -15.7025 -15.6197 -15.4894 -15.4703
   -15.4330 -15.3255 -15.2318 -15.1035   1.4090   1.5683   1.7557   1.8546
     9.1726   9.2570   9.3198   9.4289   9.5066   9.6676   9.8714  10.0379
    10.0991  10.2201  10.4216  10.7530  10.8422  10.8479  10.8879  11.0408
    11.1015  11.1069  11.1119  11.3464  11.3658  11.5471  11.5982  11.7542
    11.7717  11.7737  11.8577  11.9160  12.0041  12.0461  12.0581  12.0802
    12.0970  12.1728  12.1848  12.2025  12.2823  12.4180  12.4775  12.5560
    12.6582  12.6839  12.7781  12.8435  12.9202  12.9832  13.2648  13.3655
    13.3709  13.4959  13.8895  14.2301  14.2487  15.1079  15.2021  16.1382
    16.7241  16.9639  18.0945  18.1295  18.1981  18.4960  18.6590  18.9191
    19.2830  19.3215  19.7781  19.8519  19.9294  20.0503  20.4307  20.8251
    21.0872  21.1786

          k = 0.0000 0.0000-0.1809 (  3690 PWs)   bands (ev):

  -120.1694-120.1694-120.1384-120.1384 -84.0834 -84.0834 -84.0420 -84.0420
   -83.8196 -83.8196 -83.7589 -83.7589 -83.6411 -83.6411 -83.5457 -83.5457
   -49.8811 -49.8811 -49.7147 -49.7147 -49.6261 -49.6261 -49.5203 -49.5203
   -23.3914 -23.3914 -23.3885 -23.3885 -23.3671 -23.3671 -23.3624 -23.3624
   -23.3508 -23.3508 -23.3492 -23.3492 -23.3270 -23.3270 -23.2916 -23.2916
   -23.2867 -23.2867 -23.2684 -23.2684 -23.2550 -23.2550 -23.2191 -23.2191
   -16.3299 -16.3299 -16.1681 -16.1681 -16.0311 -16.0311 -15.9715 -15.9715
   -15.9377 -15.9377 -15.8141 -15.8141 -15.4825 -15.4825 -15.4702 -15.4702
   -15.4637 -15.4637 -15.2329 -15.2329   1.4747   1.4747   1.8171   1.8171
     9.1856   9.1856   9.4831   9.4831   9.5294   9.5294   9.8465   9.8465
    10.1583  10.1583  10.6267  10.6267  10.8008  10.8008  10.9151  10.9151
    11.0214  11.0214  11.2314  11.2314  11.4965  11.4965  11.8097  11.8097
    11.8216  11.8216  11.8627  11.8627  12.0157  12.0157  12.1483  12.1483
    12.1732  12.1732  12.2985  12.2985  12.3482  12.3482  12.5517  12.5517
    12.7040  12.7040  12.7250  12.7250  12.9443  12.9443  13.2224  13.2224
    13.3429  13.3429  14.2044  14.2044  14.3007  14.3007  15.7434  15.7434
    16.6283  16.6283  18.1058  18.1058  18.5523  18.5523  18.7757  18.7757
    19.5228  19.5228  19.6272  19.6272  19.9757  19.9757  20.8140  20.8140
    21.4638  21.6708

          k = 0.0000 0.1785 0.0000 (  3664 PWs)   bands (ev):

  -120.1742-120.1475-120.0323-120.0313 -84.0284 -84.0142 -83.9526 -83.9307
   -83.8567 -83.8290 -83.6926 -83.6751 -83.6427 -83.6308 -83.5663 -83.5370
   -49.7847 -49.7613 -49.7194 -49.7183 -49.5860 -49.5325 -49.4969 -49.4783
   -23.3902 -23.3899 -23.3849 -23.3845 -23.3680 -23.3632 -23.3582 -23.3566
   -23.3551 -23.3509 -23.3457 -23.3426 -23.3048 -23.2989 -23.2922 -23.2915
   -23.2894 -23.2859 -23.2750 -23.2700 -23.2518 -23.2452 -23.2306 -23.2275
   -16.1630 -16.1450 -16.0049 -15.9974 -15.9812 -15.8914 -15.8538 -15.8053
   -15.8022 -15.7947 -15.7439 -15.7062 -15.6978 -15.6662 -15.4904 -15.4047
   -15.3885 -15.3559 -15.1761 -15.1371   1.4860   1.6316   1.7281   1.8099
     8.9881   9.0596   9.2182   9.3321   9.4373   9.5973   9.6499   9.8646
     9.9284  10.2420  10.4218  10.4708  10.9557  10.9898  11.0195  11.1409
    11.1998  11.2003  11.2094  11.3864  11.4342  11.4788  11.4958  11.6158
    11.6664  11.8279  11.8635  11.8806  11.9734  11.9827  12.0725  12.1199
    12.1403  12.1610  12.2148  12.2184  12.3038  12.3954  12.4232  12.4852
    12.6952  12.7035  12.7150  12.7606  13.2322  13.3839  13.5709  13.8138
    13.8870  13.9233  14.0083  14.1860  14.6565  15.3181  15.5415  15.5659
    16.7882  17.5472  17.6541  17.9346  17.9573  18.0035  18.0439  18.5319
    18.6650  19.6183  19.6898  19.9193  20.0260  20.0644  20.9203  21.1759
    21.3200  21.4694

          k = 0.0000 0.1785 0.0905 (  3669 PWs)   bands (ev):

  -120.1676-120.1517-120.0754-120.0388 -84.0354 -84.0277 -83.9928 -83.9660
   -83.8179 -83.8119 -83.7661 -83.6778 -83.6748 -83.6176 -83.5611 -83.5174
   -49.8387 -49.7811 -49.7094 -49.6810 -49.6161 -49.5407 -49.5121 -49.4878
   -23.3914 -23.3907 -23.3865 -23.3851 -23.3680 -23.3653 -23.3590 -23.3561
   -23.3538 -23.3498 -23.3469 -23.3435 -23.3054 -23.3008 -23.2918 -23.2909
   -23.2881 -23.2871 -23.2736 -23.2711 -23.2515 -23.2467 -23.2324 -23.2282
   -16.2153 -16.1705 -16.1201 -15.9970 -15.9789 -15.9576 -15.9081 -15.8961
   -15.8544 -15.7771 -15.7506 -15.7356 -15.7012 -15.6179 -15.4281 -15.3787
   -15.3600 -15.3357 -15.2779 -15.1231   1.5032   1.6012   1.7487   1.8024
     8.9661   9.1084   9.1201   9.3716   9.4792   9.5689   9.6351   9.7846
     9.9387  10.1729  10.3552  10.4843  11.0000  11.0187  11.0526  11.0932
    11.2043  11.2732  11.2928  11.3293  11.3958  11.5079  11.5555  11.6035
    11.7069  11.8052  11.8587  11.9132  11.9944  12.0162  12.0715  12.1185
    12.1342  12.2119  12.2644  12.3034  12.3132  12.4130  12.4897  12.5451
    12.6664  12.7167  12.7292  12.7783  13.2716  13.2729  13.5460  13.6802
    13.7021  13.8767  13.9403  14.1063  14.6726  15.0902  15.5697  15.6785
    16.7331  17.3160  17.5678  17.7217  17.8647  18.1388  18.3891  18.9128
    19.0262  19.4821  19.6856  19.7429  19.9001  20.3954  20.9779  21.1126
    21.2016  21.4853

          k = 0.0000 0.1785-0.1809 (  3666 PWs)   bands (ev):

  -120.1224-120.1224-120.0804-120.0804 -84.0240 -84.0240 -83.9794 -83.9794
   -83.7943 -83.7943 -83.7266 -83.7266 -83.6282 -83.6282 -83.5623 -83.5623
   -49.7815 -49.7815 -49.6556 -49.6556 -49.5848 -49.5848 -49.5375 -49.5375
   -23.3890 -23.3890 -23.3856 -23.3856 -23.3663 -23.3663 -23.3585 -23.3585
   -23.3509 -23.3509 -23.3432 -23.3432 -23.3031 -23.3031 -23.2907 -23.2907
   -23.2886 -23.2886 -23.2729 -23.2729 -23.2477 -23.2477 -23.2308 -23.2308
   -16.1115 -16.1115 -16.0364 -16.0364 -16.0075 -16.0075 -15.8841 -15.8841
   -15.7915 -15.7915 -15.7622 -15.7622 -15.5600 -15.5600 -15.4964 -15.4964
   -15.3736 -15.3736 -15.1837 -15.1837   1.5479   1.5479   1.7809   1.7809
     8.9922   8.9922   9.2979   9.2979   9.4714   9.4714   9.7186   9.7186
    10.0199  10.0199  10.3938  10.3938  11.0135  11.0135  11.1059  11.1059
    11.1651  11.1651  11.3486  11.3486  11.4966  11.4966  11.6796  11.6796
    11.7455  11.7455  11.9163  11.9163  12.0040  12.0040  12.1090  12.1090
    12.2401  12.2401  12.2869  12.2869  12.3291  12.3291  12.5612  12.5612
    12.7568  12.7568  12.8717  12.8717  13.1818  13.1818  13.4583  13.4583
    13.6761  13.6761  13.9946  13.9946  14.8135  14.8135  15.6916  15.6916
    16.8399  16.8399  17.5270  17.5270  18.1997  18.1997  18.8609  18.8610
    19.3141  19.3141  19.6528  19.6529  20.4981  20.4981  20.8267  20.8268
    21.2310  21.2716

          k =-0.3405 0.0000 0.0000 (  3722 PWs)   bands (ev):

  -120.2310-120.2310-120.2004-120.2004 -84.0479 -84.0479 -84.0007 -84.0007
   -83.8659 -83.8659 -83.8425 -83.8425 -83.8090 -83.8090 -83.7216 -83.7216
   -49.8404 -49.8404 -49.7935 -49.7935 -49.7243 -49.7243 -49.6892 -49.6892
   -23.3944 -23.3944 -23.3934 -23.3934 -23.3711 -23.3711 -23.3605 -23.3605
   -23.3558 -23.3558 -23.3501 -23.3501 -23.3265 -23.3265 -23.2971 -23.2971
   -23.2926 -23.2926 -23.2673 -23.2673 -23.2512 -23.2512 -23.2153 -23.2153
   -16.2316 -16.2316 -16.2168 -16.2168 -16.2069 -16.2069 -15.9750 -15.9750
   -15.9279 -15.9279 -15.8379 -15.8379 -15.8286 -15.8286 -15.7167 -15.7167
   -15.6169 -15.6169 -15.6101 -15.6101   1.6124   1.6124   1.7499   1.7499
     9.0967   9.0967   9.5593   9.5593   9.7261   9.7261   9.9353   9.9353
    10.3596  10.3596  10.4297  10.4297  10.8796  10.8796  11.0198  11.0198
    11.1256  11.1256  11.2924  11.2924  11.3687  11.3687  11.5741  11.5741
    11.5877  11.5877  11.7369  11.7369  11.7611  11.7611  11.8916  11.8916
    11.9175  11.9175  11.9942  11.9942  12.4238  12.4238  12.4950  12.4950
    12.5863  12.5863  12.6783  12.6783  12.8871  12.8871  12.9020  12.9020
    13.1857  13.1857  13.4466  13.4466  16.4122  16.4122  16.5161  16.5161
    16.6706  16.6706  17.1382  17.1382  17.9067  17.9068  18.8710  18.8710
    19.5227  19.5227  20.2229  20.2229  20.6466  20.6466  21.5316  21.5316
    21.5326  21.5327

          k =-0.3405 0.0000 0.0905 (  3710 PWs)   bands (ev):

  -120.1974-120.1974-120.1858-120.1858 -84.0417 -84.0417 -84.0076 -84.0076
   -83.8383 -83.8383 -83.7915 -83.7915 -83.7769 -83.7769 -83.6959 -83.6959
   -49.8077 -49.8077 -49.7820 -49.7820 -49.6852 -49.6852 -49.6673 -49.6673
   -23.3956 -23.3956 -23.3895 -23.3895 -23.3696 -23.3696 -23.3617 -23.3617
   -23.3535 -23.3535 -23.3502 -23.3502 -23.3249 -23.3249 -23.2954 -23.2954
   -23.2921 -23.2921 -23.2646 -23.2646 -23.2528 -23.2528 -23.2168 -23.2168
   -16.2299 -16.2299 -16.1994 -16.1994 -16.0797 -16.0797 -15.9323 -15.9323
   -15.9014 -15.9014 -15.8312 -15.8312 -15.7564 -15.7564 -15.7109 -15.7109
   -15.5978 -15.5978 -15.4780 -15.4780   1.6130   1.6130   1.7497   1.7497
     9.0286   9.0286   9.7093   9.7093   9.7387   9.7387   9.9458   9.9458
    10.2704  10.2704  10.3631  10.3631  10.8573  10.8573  11.0940  11.0940
    11.1210  11.1210  11.2935  11.2935  11.3957  11.3957  11.5037  11.5037
    11.7050  11.7050  11.7640  11.7640  11.8593  11.8593  11.8840  11.8840
    11.9900  11.9900  12.0400  12.0400  12.2902  12.2902  12.4094  12.4094
    12.5189  12.5189  12.7297  12.7297  12.9030  12.9030  12.9367  12.9367
    13.2056  13.2056  13.5763  13.5763  15.7690  15.7690  16.1632  16.1632
    16.9176  16.9176  17.5642  17.5642  17.8930  17.8930  19.2760  19.2760
    19.7511  19.7511  20.3034  20.3034  20.7195  20.7195  21.1858  21.1858
    21.5959  21.5960

          k =-0.3405 0.0000-0.1809 (  3680 PWs)   bands (ev):

  -120.1551-120.1551-120.1052-120.1052 -84.0219 -84.0219 -84.0152 -84.0152
   -83.7771 -83.7771 -83.7187 -83.7187 -83.6680 -83.6680 -83.6540 -83.6540
   -49.7320 -49.7320 -49.7245 -49.7245 -49.6328 -49.6328 -49.5977 -49.5977
   -23.3916 -23.3916 -23.3839 -23.3839 -23.3648 -23.3648 -23.3610 -23.3610
   -23.3532 -23.3532 -23.3495 -23.3495 -23.3246 -23.3246 -23.2931 -23.2931
   -23.2904 -23.2904 -23.2622 -23.2622 -23.2482 -23.2482 -23.2154 -23.2154
   -16.1683 -16.1683 -16.0861 -16.0861 -16.0510 -16.0510 -15.8455 -15.8455
   -15.8221 -15.8221 -15.7729 -15.7729 -15.6092 -15.6092 -15.6041 -15.6041
   -15.4441 -15.4441 -15.2844 -15.2844   1.6149   1.6149   1.7501   1.7501
     8.9841   8.9841   9.7456   9.7456   9.9190   9.9190  10.0148  10.0148
    10.0267  10.0267  10.3551  10.3551  10.8459  10.8459  11.1045  11.1045
    11.1982  11.1982  11.2559  11.2559  11.4130  11.4130  11.5019  11.5019
    11.7824  11.7824  11.8270  11.8270  11.9210  11.9210  11.9759  11.9759
    12.0087  12.0087  12.0799  12.0799  12.2502  12.2502  12.2562  12.2562
    12.5993  12.5993  12.7094  12.7094  12.7723  12.7723  12.9409  12.9409
    13.3133  13.3133  13.7969  13.7969  15.3088  15.3088  15.9523  15.9523
    17.1949  17.1950  17.2742  17.2742  18.2825  18.2825  19.5022  19.5022
    20.2510  20.2511  20.6125  20.6125  20.7171  20.7171  21.0125  21.0125
    21.1176  21.1176

          k =-0.3405 0.1785 0.0000 (  3686 PWs)   bands (ev):

  -120.1534-120.1534-120.1239-120.1239 -83.9845 -83.9845 -83.9758 -83.9758
   -83.8020 -83.8020 -83.7873 -83.7873 -83.7440 -83.7440 -83.7097 -83.7097
   -49.7456 -49.7456 -49.7286 -49.7286 -49.6542 -49.6542 -49.6389 -49.6389
   -23.3898 -23.3898 -23.3889 -23.3889 -23.3664 -23.3664 -23.3601 -23.3601
   -23.3498 -23.3498 -23.3438 -23.3438 -23.3004 -23.3004 -23.2941 -23.2941
   -23.2925 -23.2925 -23.2716 -23.2716 -23.2438 -23.2438 -23.2297 -23.2297
   -16.1130 -16.1130 -16.0781 -16.0781 -15.9163 -15.9163 -15.9092 -15.9092
   -15.8567 -15.8567 -15.7750 -15.7750 -15.6987 -15.6987 -15.6648 -15.6648
   -15.5604 -15.5604 -15.5179 -15.5179   1.6666   1.6666   1.7371   1.7371
     9.0938   9.0938   9.1678   9.1678   9.8364   9.8364   9.8713   9.8713
     9.9918   9.9918  10.2374  10.2374  11.0770  11.0770  11.1880  11.1880
    11.1966  11.1966  11.3235  11.3235  11.4168  11.4168  11.4556  11.4556
    11.6318  11.6318  11.7246  11.7246  11.7677  11.7677  12.0120  12.0120
    12.0658  12.0658  12.0665  12.0665  12.2245  12.2245  12.3985  12.3985
    12.6454  12.6454  12.6890  12.6890  12.9619  12.9619  13.1197  13.1197
    13.5372  13.5372  14.1940  14.1940  15.9271  15.9271  15.9757  15.9757
    17.0233  17.0233  17.5243  17.5243  18.4100  18.4100  18.6813  18.6813
    19.6257  19.6257  20.2310  20.2310  20.5649  20.5649  21.0639  21.0639
    21.2596  21.2596

          k =-0.3405 0.1785 0.0905 (  3692 PWs)   bands (ev):

  -120.1975-120.1975-120.1086-120.1086 -84.0618 -84.0618 -83.9637 -83.9637
   -83.8014 -83.8014 -83.7499 -83.7499 -83.7367 -83.7367 -83.7165 -83.7165
   -49.7610 -49.7610 -49.7375 -49.7375 -49.6630 -49.6630 -49.6454 -49.6454
   -23.3910 -23.3910 -23.3885 -23.3885 -23.3655 -23.3655 -23.3618 -23.3618
   -23.3499 -23.3499 -23.3468 -23.3468 -23.3041 -23.3041 -23.2932 -23.2932
   -23.2915 -23.2915 -23.2732 -23.2732 -23.2452 -23.2452 -23.2306 -23.2306
   -16.2020 -16.2020 -16.1179 -16.1179 -15.9553 -15.9553 -15.9345 -15.9345
   -15.8925 -15.8925 -15.8060 -15.8060 -15.7473 -15.7473 -15.6634 -15.6634
   -15.4914 -15.4914 -15.4197 -15.4197   1.6674   1.6674   1.7355   1.7355
     9.0137   9.0137   9.2386   9.2386   9.7687   9.7687   9.8373   9.8373
    10.0515  10.0515  10.2118  10.2118  11.0670  11.0670  11.1552  11.1552
    11.2425  11.2425  11.3371  11.3371  11.4138  11.4138  11.5390  11.5390
    11.6487  11.6487  11.7379  11.7379  11.8570  11.8570  11.9717  11.9717
    12.0502  12.0502  12.1036  12.1036  12.2202  12.2202  12.4278  12.4278
    12.5893  12.5893  12.7981  12.7981  12.9650  12.9650  13.1587  13.1587
    13.3867  13.3867  14.0754  14.0754  15.5040  15.5040  16.0224  16.0224
    17.1359  17.1359  17.6683  17.6683  18.6862  18.6862  18.8873  18.8873
    19.5400  19.5400  20.2123  20.2123  20.3848  20.3848  21.0720  21.0720
    21.4277  21.4279

          k =-0.3405 0.1785-0.1809 (  3704 PWs)   bands (ev):

  -120.2368-120.2368-120.1252-120.1252 -84.1064 -84.1064 -84.0145 -84.0145
   -83.8134 -83.8134 -83.7401 -83.7401 -83.7386 -83.7386 -83.7018 -83.7018
   -49.7814 -49.7814 -49.7753 -49.7753 -49.6877 -49.6877 -49.6580 -49.6580
   -23.3932 -23.3932 -23.3881 -23.3881 -23.3663 -23.3663 -23.3642 -23.3642
   -23.3510 -23.3510 -23.3499 -23.3499 -23.3069 -23.3069 -23.2932 -23.2932
   -23.2919 -23.2919 -23.2749 -23.2749 -23.2467 -23.2467 -23.2332 -23.2332
   -16.3354 -16.3354 -16.2022 -16.2022 -15.9874 -15.9874 -15.9749 -15.9749
   -15.9621 -15.9621 -15.8928 -15.8928 -15.7259 -15.7259 -15.7104 -15.7104
   -15.4823 -15.4823 -15.3039 -15.3039   1.6675   1.6675   1.7343   1.7343
     8.9585   8.9585   9.2794   9.2794   9.6964   9.6964   9.8404   9.8404
    10.0915  10.0915  10.1794  10.1794  11.0462  11.0462  11.1489  11.1489
    11.2496  11.2496  11.3356  11.3356  11.4240  11.4240  11.6083  11.6083
    11.7071  11.7071  11.7670  11.7670  11.8629  11.8629  11.9925  11.9925
    12.0666  12.0666  12.1114  12.1114  12.2119  12.2119  12.4503  12.4503
    12.6270  12.6270  12.7726  12.7726  13.0118  13.0118  13.0242  13.0242
    13.5818  13.5818  13.7325  13.7325  15.3126  15.3126  15.8997  15.8997
    17.4196  17.4196  17.5224  17.5224  18.8804  18.8804  19.4059  19.4059
    19.6511  19.6511  19.7196  19.7196  20.3678  20.3678  21.2028  21.2028
    21.4486  21.4486

     the Fermi energy is    14.1902 ev

!    total energy              =   -3391.22251511 Ry
     Harris-Foulkes estimate   =   -3391.22252998 Ry
     estimated scf accuracy    <       0.00001810 Ry

     The total energy is the sum of the following terms:

     one-electron contribution =   -1449.26175757 Ry
     hartree contribution      =     753.02674626 Ry
     xc contribution           =    -287.07494057 Ry
     ewald contribution        =   -2407.33096737 Ry
     smearing contrib. (-TS)   =      -0.58159587 Ry

     convergence has been achieved in  10 iterations

     Forces acting on atoms (Ry/au):

     atom    1 type  1   force =     0.00000000    0.00952491    0.00598285
     atom    2 type  1   force =     0.00000000   -0.00952491   -0.00598285
     atom    3 type  1   force =     0.00000000    0.00952491   -0.00598285
     atom    4 type  1   force =     0.00000000   -0.00952491    0.00598285
     atom    5 type  1   force =     0.00000000    0.00037945   -0.00674563
     atom    6 type  1   force =     0.00000000   -0.00037945    0.00674563
     atom    7 type  1   force =     0.00000000    0.00037945    0.00674563
     atom    8 type  1   force =     0.00000000   -0.00037945   -0.00674563
     atom    9 type  2   force =     0.00000000    0.00900837    0.00372542
     atom   10 type  2   force =     0.00000000   -0.00900837   -0.00372542
     atom   11 type  2   force =     0.00000000    0.00900837   -0.00372542
     atom   12 type  2   force =     0.00000000   -0.00900837    0.00372542

     Total force =     0.032692     Total SCF correction =     0.000000


     entering subroutine stress ...

          total   stress  (Ry/bohr**3)                   (kbar)     P=-4071.98
  -0.02891839   0.00000000   0.00000000      -4254.04      0.00      0.00
   0.00000000  -0.02608710   0.00000000          0.00  -3837.54      0.00
   0.00000000   0.00000000  -0.02803676          0.00      0.00  -4124.35


     number of scf cycles    =   3
     number of bfgs steps    =   2

     enthalpy old            =   -3415.6474582298 Ry
     enthalpy new            =   -3391.2225151053 Ry

     CASE: enthalpy_new > enthalpy_old

     new trust radius        =       0.5112830726 bohr

     trust_radius < trust_radius_min

     resetting bfgs history

     Message from routine bfgs:
     history already reset at previous step: stopping
     new conv_thr            =       0.0001000000 Ry

[...]
    37.9679  38.7860  38.9638  38.9854  39.2671  39.6703  39.7578  39.7619
    40.0116  40.0130  40.0258  40.2185  40.2414  40.5241  40.5294  40.5394
    41.1560  41.1804

          k = 0.0000 0.0000 0.1143 (  5609 PWs)   bands (ev):

  -102.8118-102.7962-102.7740-102.7634 -58.3385 -58.3295 -58.3209 -58.3207
   -58.3203 -58.3187 -58.3133 -58.3116 -58.2573 -58.2545 -58.2544 -58.2525
   -35.3206 -35.3064 -35.2751 -35.2737 -35.0032 -34.9907 -34.9134 -34.9122
    -6.8853  -6.8187  -6.8118  -6.7344  -6.7125  -6.7004  -6.6796  -6.6037
    -6.6026  -6.5229  -6.4862  -6.4024  -6.3682  -6.3335  -6.2565  -6.2455
    -6.1743  -6.1426  -6.1123  -6.0343  -6.0170  -5.9524  -5.6361  -5.6243
     2.1829   2.1987   2.2226   2.2248   2.2313   2.2388   2.2496   2.2507
     2.2508   2.2511   2.2709   2.2777   2.2869   2.3082   2.3098   2.3274
     2.3676   2.3741   2.3771   2.3957  16.4973  17.3520  18.1243  18.5024
    23.2811  23.4590  23.4660  24.0166  24.0254  24.0998  24.8262  24.8560
    24.8960  25.4908  25.5056  25.5367  25.7366  26.0197  26.0381  26.1777
    26.6997  27.0572  27.1103  27.2925  27.7406  28.2141  28.3346  28.3815
    28.6266  28.6694  28.9508  28.9510  29.1523  29.6449  29.7730  29.7736
    29.8259  29.9084  29.9908  30.2569  30.2792  30.8715  31.2022  31.2665
    31.6894  32.0116  32.0335  32.4285  32.8276  33.1721  33.7395  33.7937
    34.4029  34.4389  34.9063  35.9327  36.1677  36.4779  37.1567  37.3953
    38.4661  39.0145  39.2606  39.3024  39.4274  39.4619  39.5837  39.8143
    39.8495  40.0613  40.1150  40.1712  40.5093  40.9453  41.1176  41.2493
    41.3090  41.3679

          k = 0.0000 0.0000-0.2286 (  5594 PWs)   bands (ev):

  -102.7781-102.7781-102.7669-102.7669 -58.3323 -58.3323 -58.3220 -58.3220
   -58.3142 -58.3141 -58.3086 -58.3086 -58.2542 -58.2541 -58.2499 -58.2498
   -35.3123 -35.3123 -35.2744 -35.2744 -34.9965 -34.9965 -34.9116 -34.9116
    -6.8407  -6.8407  -6.7861  -6.7861  -6.7224  -6.7224  -6.6416  -6.6416
    -6.5336  -6.5336  -6.4468  -6.4468  -6.3505  -6.3504  -6.2515  -6.2515
    -6.1545  -6.1545  -6.0594  -6.0594  -5.9942  -5.9942  -5.6309  -5.6309
     2.2003   2.2003   2.2077   2.2077   2.2440   2.2440   2.2459   2.2459
     2.2692   2.2692   2.2712   2.2712   2.2913   2.2914   2.3203   2.3203
     2.3711   2.3711   2.3831   2.3831  16.8832  16.8833  18.3546  18.3546
    23.5798  23.5798  23.5937  23.5937  24.1691  24.1691  24.4795  24.4795
    25.2156  25.2156  25.6534  25.6534  25.8659  25.8659  25.9880  25.9880
    26.8518  26.8518  26.9493  26.9493  27.9496  27.9496  28.5058  28.5058
    28.8044  28.8044  28.9611  28.9611  29.3373  29.3373  29.8943  29.8943
    30.0738  30.0738  30.3366  30.3366  30.6961  30.6961  31.4201  31.4202
    31.6562  31.6562  32.3850  32.3850  33.1480  33.1480  33.5030  33.5030
    34.0338  34.0338  35.8820  35.8821  35.9611  35.9612  36.1738  36.1739
    38.8514  38.8514  39.2484  39.2484  39.4231  39.4232  39.8304  39.8304
    40.1030  40.1030  40.8391  40.8393  40.9311  40.9312  41.4490  41.4491
    41.8723  41.8755

          k = 0.0000 0.2224 0.0000 (  5565 PWs)   bands (ev):

  -102.7852-102.7516-102.7352-102.7089 -58.3266 -58.3204 -58.3198 -58.3161
   -58.3146 -58.3090 -58.3063 -58.3047 -58.2544 -58.2473 -58.2463 -58.2403
   -35.3154 -35.3047 -35.2730 -35.2716 -34.9818 -34.9686 -34.9350 -34.9279
    -6.8397  -6.7897  -6.7611  -6.7302  -6.7142  -6.6603  -6.6330  -6.6287
    -6.6240  -6.5161  -6.4547  -6.4193  -6.3708  -6.2245  -6.2092  -6.2006
    -6.1856  -6.1572  -6.0632  -6.0478  -6.0475  -5.9404  -5.8358  -5.7974
     2.1998   2.2019   2.2197   2.2239   2.2285   2.2516   2.2560   2.2646
     2.2825   2.2860   2.2940   2.2955   2.3065   2.3223   2.3276   2.3408
     2.3616   2.3689   2.3742   2.3831  16.9421  17.9108  18.0230  18.4078
    23.0324  23.2671  23.3286  23.4891  23.6166  23.9358  24.2306  24.3914
    24.7878  25.7368  25.7477  25.7604  25.9072  26.0040  26.4699  26.6187
    26.6342  26.9080  27.0627  27.3438  27.4141  27.4376  27.8719  27.9231
    28.4045  28.6137  28.7957  29.0675  29.3252  29.3654  29.4766  29.9801
    29.9958  30.0190  30.1495  30.1944  30.3429  30.4113  30.7685  31.6117
    31.6984  31.8484  31.8631  32.4384  33.5652  34.4356  34.4496  35.2484
    35.3865  35.4447  35.7838  35.9488  36.5287  36.5412  36.6740  36.9374
    37.6173  37.7926  38.6402  38.6745  38.7393  39.3143  39.5737  39.7318
    39.8653  39.8993  40.3425  40.4467  40.9978  41.0311  41.0814  41.3921
    41.5029  41.9674

          k = 0.0000 0.2224 0.1143 (  5587 PWs)   bands (ev):

  -102.7947-102.7725-102.7629-102.7370 -58.3266 -58.3249 -58.3200 -58.3186
   -58.3183 -58.3167 -58.3142 -58.3106 -58.2549 -58.2517 -58.2481 -58.2431
   -35.3142 -35.3051 -35.2761 -35.2746 -34.9803 -34.9710 -34.9355 -34.9309
    -6.8339  -6.7826  -6.7767  -6.7373  -6.7171  -6.6733  -6.6491  -6.6142
    -6.6049  -6.5330  -6.4504  -6.4220  -6.3517  -6.2301  -6.2243  -6.2083
    -6.1820  -6.1610  -6.0794  -6.0756  -6.0179  -5.9512  -5.8293  -5.8038
     2.2048   2.2072   2.2244   2.2258   2.2301   2.2458   2.2494   2.2591
     2.2750   2.2875   2.2886   2.3011   2.3048   2.3141   2.3350   2.3435
     2.3626   2.3672   2.3715   2.3796  17.0639  17.7170  18.1342  18.3710
    22.9544  23.1645  23.3864  23.4264  23.8485  23.8921  24.1748  24.4009
    24.7668  25.3451  25.5523  25.8755  25.9681  26.2289  26.2388  26.4022
    26.6677  26.8763  27.3529  27.3881  27.4923  27.7570  27.9254  28.1144
    28.3048  28.4978  28.5149  29.1108  29.1627  29.3527  29.5163  29.7928
    30.0031  30.1069  30.2098  30.3051  30.6839  30.8444  31.2350  31.5948
    31.7094  31.8700  31.8702  32.4992  33.5636  33.8241  34.3570  34.5552
    34.8361  35.3519  35.4521  35.9296  36.1769  36.6761  36.8042  37.1033
    38.1634  38.4984  38.6249  38.8043  38.9917  39.0530  39.4977  39.5658
    39.6762  40.1277  40.5511  40.5736  40.6850  41.0974  41.4752  41.5643
    41.6409  41.8027

          k = 0.0000 0.2224-0.2286 (  5568 PWs)   bands (ev):

  -102.7610-102.7609-102.7393-102.7393 -58.3217 -58.3217 -58.3186 -58.3185
   -58.3112 -58.3112 -58.3084 -58.3084 -58.2522 -58.2521 -58.2439 -58.2438
   -35.3095 -35.3095 -35.2745 -35.2745 -34.9743 -34.9743 -34.9324 -34.9324
    -6.8045  -6.8045  -6.7620  -6.7620  -6.6943  -6.6943  -6.6204  -6.6204
    -6.5629  -6.5629  -6.4333  -6.4332  -6.2900  -6.2900  -6.2164  -6.2164
    -6.1701  -6.1701  -6.0850  -6.0850  -5.9795  -5.9795  -5.8163  -5.8163
     2.2199   2.2199   2.2215   2.2216   2.2361   2.2361   2.2535   2.2535
     2.2793   2.2793   2.2896   2.2897   2.3128   2.3129   2.3437   2.3437
     2.3687   2.3687   2.3706   2.3706  17.3760  17.3761  18.2786  18.2786
    22.9344  22.9344  23.6706  23.6707  23.6744  23.6744  24.3151  24.3151
    24.9465  24.9465  25.6254  25.6254  26.1906  26.1906  26.2310  26.2310
    26.6550  26.6550  27.4484  27.4484  27.8477  27.8477  28.1488  28.1488
    28.2143  28.2143  29.0164  29.0164  29.2456  29.2456  29.4356  29.4356
    30.2308  30.2308  30.2429  30.2429  30.7704  30.7704  31.9031  31.9031
    31.9474  31.9474  32.4547  32.4547  33.0429  33.0429  33.9232  33.9232
    34.8560  34.8560  35.6085  35.6085  36.6199  36.6199  36.9522  36.9523
    38.3630  38.3630  38.9444  38.9444  38.9701  38.9702  39.7907  39.7907
    39.9887  39.9887  40.6921  40.6922  40.9613  40.9614  41.3028  41.3030
    41.6274  41.6275

          k =-0.4322 0.0000 0.0000 (  5596 PWs)   bands (ev):

  -102.7842-102.7842-102.7765-102.7765 -58.3288 -58.3288 -58.3276 -58.3276
   -58.3140 -58.3140 -58.3125 -58.3125 -58.2515 -58.2515 -58.2496 -58.2496
   -35.2908 -35.2908 -35.2883 -35.2883 -35.0048 -35.0048 -34.9126 -34.9126
    -6.8429  -6.8429  -6.7976  -6.7976  -6.7581  -6.7581  -6.6566  -6.6566
    -6.5895  -6.5895  -6.4754  -6.4754  -6.3208  -6.3208  -6.2201  -6.2201
    -6.1129  -6.1129  -6.0176  -6.0176  -5.9721  -5.9721  -5.6428  -5.6428
     2.1679   2.1679   2.1735   2.1735   2.2167   2.2167   2.2184   2.2184
     2.2670   2.2670   2.2719   2.2719   2.2893   2.2893   2.3362   2.3362
     2.3620   2.3620   2.3903   2.3903  17.8002  17.8002  17.8170  17.8170
    23.3998  23.3998  24.3902  24.3902  24.6624  24.6624  25.3789  25.3789
    25.9142  25.9142  26.1934  26.1934  26.1971  26.1971  26.5406  26.5406
    26.6277  26.6277  27.1469  27.1469  27.2072  27.2072  27.7358  27.7358
    27.9188  27.9188  28.4789  28.4789  28.5285  28.5285  28.9392  28.9392
    29.0566  29.0566  29.7703  29.7703  30.1613  30.1613  30.8594  30.8594
    31.6455  31.6455  31.7914  31.7914  32.6751  32.6751  33.4211  33.4211
    34.0654  34.0654  34.3755  34.3755  37.7464  37.7464  38.2752  38.2752
    38.6577  38.6577  39.0576  39.0576  39.1656  39.1656  40.1084  40.1085
    40.1427  40.1427  40.9664  40.9664  41.2771  41.2771  41.3698  41.3699
    41.4169  41.4170

          k =-0.4322 0.0000 0.1143 (  5620 PWs)   bands (ev):

  -102.8194-102.8194-102.7834-102.7834 -58.3383 -58.3383 -58.3317 -58.3317
   -58.3171 -58.3171 -58.3144 -58.3144 -58.2560 -58.2560 -58.2501 -58.2501
   -35.2918 -35.2918 -35.2894 -35.2894 -35.0057 -35.0057 -34.9139 -34.9139
    -6.8522  -6.8522  -6.8226  -6.8226  -6.7139  -6.7139  -6.6843  -6.6843
    -6.5434  -6.5434  -6.4857  -6.4857  -6.3804  -6.3804  -6.1888  -6.1888
    -6.1249  -6.1249  -6.0217  -6.0217  -5.9732  -5.9732  -5.6442  -5.6442
     2.1629   2.1629   2.1713   2.1713   2.2163   2.2163   2.2255   2.2255
     2.2636   2.2636   2.2843   2.2843   2.2888   2.2888   2.3266   2.3266
     2.3578   2.3578   2.3921   2.3921  17.7927  17.7927  17.8455  17.8455
    23.2568  23.2568  24.4397  24.4397  24.7052  24.7052  25.3327  25.3327
    25.8329  25.8329  26.0857  26.0857  26.2259  26.2259  26.4802  26.4802
    26.5870  26.5870  27.0804  27.0804  27.2773  27.2773  27.6107  27.6107
    28.1541  28.1541  28.6087  28.6087  28.7030  28.7030  29.0884  29.0884
    29.2409  29.2409  29.6821  29.6821  30.0330  30.0330  30.8370  30.8370
    31.4070  31.4070  32.2828  32.2828  32.5698  32.5698  32.9245  32.9245
    34.2005  34.2005  34.8477  34.8477  37.3710  37.3710  37.8388  37.8388
    38.1589  38.1589  39.1132  39.1133  39.5183  39.5184  39.9654  39.9654
    40.2849  40.2850  40.7855  40.7855  41.0559  41.0559  41.4605  41.4607
    41.9346  41.9348

          k =-0.4322 0.0000-0.2286 (  5616 PWs)   bands (ev):

  -102.8327-102.8327-102.7622-102.7622 -58.3322 -58.3322 -58.3227 -58.3227
   -58.3218 -58.3218 -58.3155 -58.3155 -58.2578 -58.2578 -58.2547 -58.2547
   -35.2912 -35.2912 -35.2895 -35.2895 -35.0064 -35.0064 -34.9127 -34.9127
    -6.8635  -6.8635  -6.8163  -6.8163  -6.7151  -6.7151  -6.6608  -6.6608
    -6.4983  -6.4983  -6.4725  -6.4725  -6.4653  -6.4653  -6.1541  -6.1541
    -6.1418  -6.1418  -6.0199  -6.0199  -5.9747  -5.9747  -5.6502  -5.6502
     2.1600   2.1600   2.1722   2.1722   2.2171   2.2171   2.2306   2.2306
     2.2657   2.2657   2.2873   2.2873   2.3051   2.3051   2.3070   2.3070
     2.3557   2.3557   2.3921   2.3921  17.7924  17.7924  17.8754  17.8754
    23.1252  23.1252  24.4781  24.4781  24.7203  24.7203  25.4606  25.4606
    25.6931  25.6931  25.9603  25.9603  26.1229  26.1229  26.3995  26.3995
    26.6614  26.6614  27.1107  27.1107  27.2123  27.2123  27.5298  27.5298
    28.3719  28.3719  28.8320  28.8320  28.9098  28.9098  29.1951  29.1951
    29.2376  29.2376  29.7712  29.7712  29.7932  29.7932  30.9698  30.9698
    31.5480  31.5480  32.0515  32.0515  32.4678  32.4678  32.7124  32.7124
    34.2981  34.2981  35.5454  35.5454  36.7599  36.7599  37.2539  37.2539
    38.3513  38.3513  39.0237  39.0237  39.2293  39.2293  39.9664  39.9664
    40.4458  40.4459  40.8010  40.8010  41.0693  41.0694  41.4064  41.4066
    41.9613  41.9616

          k =-0.4322 0.2224 0.0000 (  5612 PWs)   bands (ev):

  -102.8084-102.8084-102.7769-102.7769 -58.3305 -58.3305 -58.3273 -58.3273
   -58.3182 -58.3182 -58.3163 -58.3163 -58.2558 -58.2558 -58.2521 -58.2521
   -35.2901 -35.2901 -35.2896 -35.2896 -34.9823 -34.9823 -34.9365 -34.9365
    -6.8257  -6.8257  -6.8062  -6.8062  -6.7475  -6.7475  -6.6553  -6.6553
    -6.4988  -6.4988  -6.4658  -6.4658  -6.2995  -6.2995  -6.2307  -6.2307
    -6.1233  -6.1233  -6.0385  -6.0385  -5.9585  -5.9585  -5.8227  -5.8227
     2.1699   2.1699   2.1722   2.1722   2.2214   2.2214   2.2255   2.2255
     2.2816   2.2816   2.3037   2.3037   2.3221   2.3221   2.3266   2.3266
     2.3710   2.3710   2.3839   2.3839  18.0451  18.0451  18.0521  18.0521
    23.3529  23.3529  23.6385  23.6385  24.5603  24.5603  24.9680  24.9680
    25.6943  25.6943  25.7443  25.7443  26.2519  26.2519  26.6322  26.6322
    26.6508  26.6508  26.9869  26.9869  27.4318  27.4318  27.4855  27.4855
    28.0705  28.0705  28.3572  28.3572  28.4346  28.4346  29.1564  29.1564
    29.4822  29.4822  29.7933  29.7933  29.9809  29.9809  30.4236  30.4236
    31.8618  31.8618  31.9897  31.9897  32.9577  32.9577  33.2144  33.2144
    34.8333  34.8333  36.6302  36.6302  37.4934  37.4934  37.8643  37.8644
    38.2335  38.2335  38.4678  38.4679  39.4810  39.4810  39.7829  39.7829
    40.0929  40.0929  41.1491  41.1491  41.2923  41.2924  41.8085  41.8086
    42.2734  42.2736

          k =-0.4322 0.2224 0.1143 (  5600 PWs)   bands (ev):

  -102.7944-102.7944-102.7694-102.7694 -58.3303 -58.3303 -58.3275 -58.3275
   -58.3167 -58.3167 -58.3114 -58.3114 -58.2521 -58.2521 -58.2503 -58.2503
   -35.2899 -35.2899 -35.2888 -35.2888 -34.9818 -34.9818 -34.9359 -34.9359
    -6.8273  -6.8273  -6.7883  -6.7883  -6.7290  -6.7290  -6.6835  -6.6835
    -6.5146  -6.5146  -6.4635  -6.4635  -6.2994  -6.2994  -6.1945  -6.1945
    -6.1273  -6.1273  -6.0505  -6.0505  -5.9610  -5.9610  -5.8211  -5.8211
     2.1684   2.1684   2.1730   2.1730   2.2220   2.2220   2.2284   2.2284
     2.2862   2.2862   2.3035   2.3035   2.3180   2.3180   2.3269   2.3269
     2.3716   2.3716   2.3852   2.3852  18.0534  18.0534  18.0726  18.0726
    23.2403  23.2403  23.6894  23.6894  24.5986  24.5986  24.9864  24.9864
    25.4049  25.4049  25.7460  25.7460  26.1849  26.1849  26.4829  26.4829
    26.6883  26.6883  27.1662  27.1662  27.2548  27.2548  27.7657  27.7657
    28.1713  28.1713  28.3667  28.3667  28.7567  28.7567  29.0842  29.0842
    29.5144  29.5144  29.6811  29.6811  29.9235  29.9235  30.5443  30.5443
    31.7590  31.7590  32.1836  32.1836  32.9564  32.9564  33.5448  33.5448
    34.4625  34.4625  36.1723  36.1723  37.1118  37.1118  37.5878  37.5878
    38.5011  38.5011  38.7869  38.7869  39.5652  39.5653  39.8080  39.8081
    40.4554  40.4554  40.9221  40.9222  41.2493  41.2494  41.9026  41.9027
    42.0447  42.0448

          k =-0.4322 0.2224-0.2286 (  5592 PWs)   bands (ev):

  -102.7783-102.7783-102.7735-102.7735 -58.3294 -58.3294 -58.3281 -58.3281
   -58.3124 -58.3124 -58.3121 -58.3121 -58.2503 -58.2503 -58.2492 -58.2492
   -35.2891 -35.2891 -35.2890 -35.2890 -34.9812 -34.9812 -34.9360 -34.9360
    -6.8276  -6.8276  -6.7462  -6.7462  -6.7357  -6.7357  -6.7057  -6.7057
    -6.5369  -6.5369  -6.4636  -6.4636  -6.2895  -6.2895  -6.1510  -6.1510
    -6.1436  -6.1436  -6.0682  -6.0682  -5.9645  -5.9645  -5.8208  -5.8208
     2.1679   2.1679   2.1740   2.1740   2.2217   2.2217   2.2301   2.2301
     2.2958   2.2958   2.2973   2.2973   2.3156   2.3156   2.3259   2.3259
     2.3717   2.3717   2.3863   2.3863  18.0620  18.0620  18.0919  18.0919
    23.1448  23.1448  23.7075  23.7075  24.7448  24.7448  24.9682  24.9682
    25.1572  25.1572  25.6920  25.6920  26.1383  26.1383  26.4982  26.4982
    26.5086  26.5086  27.2481  27.2481  27.2488  27.2488  28.0249  28.0249
    28.2165  28.2165  28.4144  28.4144  28.9707  28.9707  29.3228  29.3228
    29.3493  29.3493  29.5636  29.5636  29.8632  29.8632  30.6212  30.6212
    31.8636  31.8636  32.1197  32.1197  32.9648  32.9648  33.8557  33.8557
    34.7430  34.7430  35.0322  35.0322  37.0587  37.0587  37.2617  37.2617
    38.7138  38.7138  39.2002  39.2002  39.3813  39.3813  39.9924  39.9925
    40.4149  40.4150  40.9402  40.9402  41.5501  41.5502  41.8000  41.8001
    41.8208  41.8209

     the Fermi energy is    35.2124 ev

!    total energy              =   -3422.44561690 Ry
     Harris-Foulkes estimate   =   -3422.44562843 Ry
     estimated scf accuracy    <       0.00001389 Ry

     The total energy is the sum of the following terms:

     one-electron contribution =    -577.62384046 Ry
     hartree contribution      =     486.36649524 Ry
     xc contribution           =    -301.73532331 Ry
     ewald contribution        =   -3029.16972289 Ry
     smearing contrib. (-TS)   =      -0.28322549 Ry

     convergence has been achieved in  11 iterations

     Forces acting on atoms (Ry/au):

     atom    1 type  1   force =     0.00000000   -0.01464139   -0.01426532
     atom    2 type  1   force =     0.00000000    0.01464139    0.01426532
     atom    3 type  1   force =     0.00000000   -0.01464139    0.01426532
     atom    4 type  1   force =     0.00000000    0.01464139   -0.01426532
     atom    5 type  1   force =     0.00000000    0.05551477   -0.10225652
     atom    6 type  1   force =     0.00000000   -0.05551477    0.10225652
     atom    7 type  1   force =     0.00000000    0.05551477    0.10225652
     atom    8 type  1   force =     0.00000000   -0.05551477   -0.10225652
     atom    9 type  2   force =     0.00000000   -0.06733282    0.00690940
     atom   10 type  2   force =     0.00000000    0.06733282   -0.00690940
     atom   11 type  2   force =     0.00000000   -0.06733282   -0.00690940
     atom   12 type  2   force =     0.00000000    0.06733282    0.00690940

     Total force =     0.272306     Total SCF correction =     0.000000


     entering subroutine stress ...

          total   stress  (Ry/bohr**3)                   (kbar)     P=  844.57
   0.00606511   0.00000000   0.00000000        892.21      0.00      0.00
   0.00000000   0.00535181   0.00000000          0.00    787.28      0.00
   0.00000000   0.00000000   0.00580687          0.00      0.00    854.22


     Writing output data file Prototype-La-oP12-Co2Si.save
 
     init_run     :      4.69s CPU      6.47s WALL (       2 calls)
     electrons    :   1163.11s CPU   1311.09s WALL (       5 calls)
     update_pot   :      1.89s CPU      3.24s WALL (       3 calls)
     forces       :      4.83s CPU      5.09s WALL (       5 calls)
     stress       :     13.11s CPU     13.40s WALL (       5 calls)

     Called by init_run:
     wfcinit      :      3.80s CPU      4.88s WALL (       2 calls)
     potinit      :      0.41s CPU      0.42s WALL (       2 calls)

     Called by electrons:
     c_bands      :   1138.10s CPU   1257.33s WALL (      48 calls)
     sum_band     :     24.61s CPU     29.99s WALL (      48 calls)
     v_of_rho     :      0.08s CPU      0.09s WALL (      53 calls)
     mix_rho      :      0.08s CPU      0.10s WALL (      48 calls)

     Called by c_bands:
     init_us_2    :      1.39s CPU      1.59s WALL (    1296 calls)
     ccgdiagg     :   1045.81s CPU   1140.96s WALL (     698 calls)
     wfcrot       :     94.56s CPU    118.45s WALL (     710 calls)

     Called by *cgdiagg:
     h_psi        :    716.21s CPU    823.03s WALL (  543147 calls)
     cdiaghg      :      7.38s CPU      8.22s WALL (     710 calls)

     Called by h_psi:
     add_vuspsi   :    134.09s CPU    142.57s WALL (  543147 calls)

     General routines
     calbec       :    313.63s CPU    324.21s WALL ( 1085704 calls)
     fft          :      0.11s CPU      0.17s WALL (     235 calls)
     fftw         :    382.28s CPU    446.01s WALL ( 1376290 calls)
     davcio       :      0.89s CPU      2.67s WALL (    1872 calls)
 
     Parallel routines
     fft_scatter  :    152.98s CPU    181.75s WALL ( 1376525 calls)
 
     PWSCF        : 19m48.04s CPU    22m23.53s WALL

 
   This run was terminated on:  23: 9:53  22Mar2018            

=------------------------------------------------------------------------------=
   JOB DONE.
=------------------------------------------------------------------------------=
