
     Program PWSCF v.5.0.2 starts on 22Mar2018 at 22:47:28 

     This program is part of the open-source Quantum ESPRESSO suite
     for quantum simulation of materials; please cite
         "P. Giannozzi et al., J. Phys.:Condens. Matter 21 395502 (2009);
          URL http://www.quantum-espresso.org", 
     in publications or presentations arising from this work. More details at
     http://www.quantum-espresso.org/quote.php

     Parallel version (MPI), running on     4 processors
     R & G space division:  proc/nbgrp/npool/nimage =       4

     Current dimensions of program PWSCF are:
     Max number of different atomic species (ntypx) = 10
     Max number of k-points (npk) =  40000
     Max angular momentum in pseudopotentials (lmaxx) =  3
     Waiting for input...
     Reading input from standard input

     Subspace diagonalization in iterative solution of the eigenvalue problem:
     a serial algorithm will be used

 
     Parallelization info
     --------------------
     sticks:   dense  smooth     PW     G-vecs:    dense   smooth      PW
     Min         233     233     69                 5311     5311     851
     Max         234     234     70                 5314     5314     854
     Sum         933     933    277                21247    21247    3407
 


     bravais-lattice index     =            0
     lattice parameter (alat)  =       8.5346  a.u.
     unit-cell volume          =     621.6493 (a.u.)^3
     number of atoms/cell      =            8
     number of atomic types    =            2
     number of electrons       =       158.00
     number of Kohn-Sham states=           95
     kinetic-energy cutoff     =      40.0000  Ry
     charge density cutoff     =     160.0000  Ry
     convergence threshold     =      1.0E-04
     mixing beta               =       0.7000
     number of iterations used =            8  plain     mixing
     Exchange-correlation      = SLA-PZ-NOGX-NOGC ( 1 1 0 0 0)
     EXX-fraction              =        0.00
     nstep                     =           50


     celldm(1)=   8.534573  celldm(2)=   0.000000  celldm(3)=   0.000000
     celldm(4)=   0.000000  celldm(5)=   0.000000  celldm(6)=   0.000000

     crystal axes: (cart. coord. in units of alat)
               a(1) = (   1.000000   0.000000   0.000000 )  
               a(2) = (   0.000000   1.000000   0.000000 )  
               a(3) = (   0.000000   0.000000   1.000000 )  

     reciprocal axes: (cart. coord. in units 2 pi/alat)
               b(1) = (  1.000000  0.000000  0.000000 )  
               b(2) = (  0.000000  1.000000  0.000000 )  
               b(3) = (  0.000000  0.000000  1.000000 )  


     PseudoPot. # 1 for Gd read from file:
     /home/cwx6513/pp.La/Gd.UPF
     MD5 check sum: 09a8be538722f05520810cb6aac0efd2
     Pseudo is Norm-conserving, Zval = 18.0
     Generated in analytical, separable form
     Using radial grid of 1263 points,  6 beta functions with: 
                l(1) =   0
                l(2) =   0
                l(3) =   1
                l(4) =   1
                l(5) =   2
                l(6) =   3

     PseudoPot. # 2 for Lu read from file:
     /home/cwx6513/pp.La/La.UPF
     MD5 check sum: 4fc038260c66a0bf25fb4835376efb80
     Pseudo is Norm-conserving, Zval = 25.0
     Generated in analytical, separable form
     Using radial grid of 1271 points,  6 beta functions with: 
                l(1) =   0
                l(2) =   0
                l(3) =   1
                l(4) =   1
                l(5) =   2
                l(6) =   3

     atomic species   valence    mass     pseudopotential
        Cr            18.00    51.99610     Gd( 1.00)
        Si            25.00    28.08550     Lu( 1.00)

     48 Sym. Ops., with inversion, found (24 have fractional translation)



   Cartesian axes

     site n.     atom                  positions (alat units)
         1           Cr  tau(   1) = (   0.0000000   0.5000000   0.2500000  )
         2           Cr  tau(   2) = (   0.0000000   0.5000000   0.7500000  )
         3           Cr  tau(   3) = (   0.5000000   0.7500000   0.0000000  )
         4           Cr  tau(   4) = (   0.5000000   0.2500000   0.0000000  )
         5           Cr  tau(   5) = (   0.7500000   0.0000000   0.5000000  )
         6           Cr  tau(   6) = (   0.2500000   0.0000000   0.5000000  )
         7           Si  tau(   7) = (   0.5000000   0.5000000   0.5000000  )
         8           Si  tau(   8) = (   0.0000000   0.0000000   0.0000000  )

     number of k points=    48  gaussian smearing, width (Ry)=  0.1000
                       cart. coord. in units 2pi/alat
        k(    1) = (   0.0000000   0.0000000   0.0000000), wk =   0.0095238
        k(    2) = (   0.0000000   0.0000000   0.1428571), wk =   0.0190476
        k(    3) = (   0.0000000   0.0000000   0.2857143), wk =   0.0190476
        k(    4) = (   0.0000000   0.0000000   0.4285714), wk =   0.0190476
        k(    5) = (   0.0000000   0.1666667   0.0000000), wk =   0.0190476
        k(    6) = (   0.0000000   0.1666667   0.1428571), wk =   0.0380952
        k(    7) = (   0.0000000   0.1666667   0.2857143), wk =   0.0380952
        k(    8) = (   0.0000000   0.1666667   0.4285714), wk =   0.0380952
        k(    9) = (   0.0000000   0.3333333   0.0000000), wk =   0.0190476
        k(   10) = (   0.0000000   0.3333333   0.1428571), wk =   0.0380952
        k(   11) = (   0.0000000   0.3333333   0.2857143), wk =   0.0380952
        k(   12) = (   0.0000000   0.3333333   0.4285714), wk =   0.0380952
        k(   13) = (   0.0000000  -0.5000000   0.0000000), wk =   0.0095238
        k(   14) = (   0.0000000  -0.5000000   0.1428571), wk =   0.0190476
        k(   15) = (   0.0000000  -0.5000000   0.2857143), wk =   0.0190476
        k(   16) = (   0.0000000  -0.5000000   0.4285714), wk =   0.0190476
        k(   17) = (   0.2000000   0.0000000   0.0000000), wk =   0.0190476
        k(   18) = (   0.2000000   0.0000000   0.1428571), wk =   0.0380952
        k(   19) = (   0.2000000   0.0000000   0.2857143), wk =   0.0380952
        k(   20) = (   0.2000000   0.0000000   0.4285714), wk =   0.0380952
        k(   21) = (   0.2000000   0.1666667   0.0000000), wk =   0.0380952
        k(   22) = (   0.2000000   0.1666667   0.1428571), wk =   0.0761905
        k(   23) = (   0.2000000   0.1666667   0.2857143), wk =   0.0761905
        k(   24) = (   0.2000000   0.1666667   0.4285714), wk =   0.0761905
        k(   25) = (   0.2000000   0.3333333   0.0000000), wk =   0.0380952
        k(   26) = (   0.2000000   0.3333333   0.1428571), wk =   0.0761905
        k(   27) = (   0.2000000   0.3333333   0.2857143), wk =   0.0761905
        k(   28) = (   0.2000000   0.3333333   0.4285714), wk =   0.0761905
        k(   29) = (   0.2000000  -0.5000000   0.0000000), wk =   0.0190476
        k(   30) = (   0.2000000  -0.5000000   0.1428571), wk =   0.0380952
        k(   31) = (   0.2000000  -0.5000000   0.2857143), wk =   0.0380952
        k(   32) = (   0.2000000  -0.5000000   0.4285714), wk =   0.0380952
        k(   33) = (   0.4000000   0.0000000   0.0000000), wk =   0.0190476
        k(   34) = (   0.4000000   0.0000000   0.1428571), wk =   0.0380952
        k(   35) = (   0.4000000   0.0000000   0.2857143), wk =   0.0380952
        k(   36) = (   0.4000000   0.0000000   0.4285714), wk =   0.0380952
        k(   37) = (   0.4000000   0.1666667   0.0000000), wk =   0.0380952
        k(   38) = (   0.4000000   0.1666667   0.1428571), wk =   0.0761905
        k(   39) = (   0.4000000   0.1666667   0.2857143), wk =   0.0761905
        k(   40) = (   0.4000000   0.1666667   0.4285714), wk =   0.0761905
        k(   41) = (   0.4000000   0.3333333   0.0000000), wk =   0.0380952
        k(   42) = (   0.4000000   0.3333333   0.1428571), wk =   0.0761905
        k(   43) = (   0.4000000   0.3333333   0.2857143), wk =   0.0761905
        k(   44) = (   0.4000000   0.3333333   0.4285714), wk =   0.0761905
        k(   45) = (   0.4000000  -0.5000000   0.0000000), wk =   0.0190476
        k(   46) = (   0.4000000  -0.5000000   0.1428571), wk =   0.0380952
        k(   47) = (   0.4000000  -0.5000000   0.2857143), wk =   0.0380952
        k(   48) = (   0.4000000  -0.5000000   0.4285714), wk =   0.0380952

     Dense  grid:    21247 G-vectors     FFT dimensions: (  36,  36,  36)

     Largest allocated arrays     est. size (Mb)     dimensions
        Kohn-Sham Wavefunctions         0.99 Mb     (    683,   95)
        NL pseudopotentials             1.67 Mb     (    683,  160)
        Each V/rho on FFT grid          0.18 Mb     (  11664)
        Each G-vector array             0.04 Mb     (   5314)
        G-vector shells                 0.04 Mb     (   5314)
     Largest temporary arrays     est. size (Mb)     dimensions
        Each subspace H/S matrix        0.14 Mb     (  95,  95)
        Each <psi_i|beta_j> matrix      0.23 Mb     (    160,   95)
        Arrays for rho mixing           1.42 Mb     (  11664,   8)

     Initial potential from superposition of free atoms

     Starting from uniform charge
     Starting wfc are    0 randomized atomic wfcs

     total cpu time spent up to now is        4.0 secs

     Self-consistent Calculation

     iteration #  1     ecut=    40.00 Ry     beta=0.70
     CG style diagonalization
     ethr =  1.00E-02,  avg # of iterations = 17.3

     total cpu time spent up to now is       95.5 secs

     total energy              =   -1615.87476500 Ry
     Harris-Foulkes estimate   =   -2527.05901506 Ry
     estimated scf accuracy    <    1100.97008979 Ry

     iteration #  2     ecut=    40.00 Ry     beta=0.70
     CG style diagonalization
     c_bands:  2 eigenvalues not converged
     c_bands:  1 eigenvalues not converged
     c_bands:  1 eigenvalues not converged
     c_bands:  2 eigenvalues not converged
     c_bands:  1 eigenvalues not converged
     c_bands:  1 eigenvalues not converged
     c_bands:  2 eigenvalues not converged
     c_bands:  1 eigenvalues not converged
     c_bands:  1 eigenvalues not converged
     c_bands:  2 eigenvalues not converged
     c_bands:  2 eigenvalues not converged
     c_bands:  2 eigenvalues not converged
     c_bands:  1 eigenvalues not converged
     c_bands:  1 eigenvalues not converged
     c_bands:  1 eigenvalues not converged
     c_bands:  1 eigenvalues not converged
     c_bands:  1 eigenvalues not converged
     c_bands:  1 eigenvalues not converged
     c_bands:  1 eigenvalues not converged
     c_bands:  1 eigenvalues not converged
     c_bands:  1 eigenvalues not converged
     c_bands:  1 eigenvalues not converged
     c_bands:  1 eigenvalues not converged
     ethr =  1.00E-02,  avg # of iterations =  9.7

     total cpu time spent up to now is      151.0 secs

     total energy              =   -1889.35239639 Ry
     Harris-Foulkes estimate   =   -2463.60265754 Ry
     estimated scf accuracy    <    1015.61728828 Ry

     iteration #  3     ecut=    40.00 Ry     beta=0.70
     CG style diagonalization
     c_bands:  1 eigenvalues not converged
     c_bands:  2 eigenvalues not converged
     c_bands:  1 eigenvalues not converged
     c_bands:  1 eigenvalues not converged
     c_bands:  1 eigenvalues not converged
     c_bands:  1 eigenvalues not converged
     c_bands:  1 eigenvalues not converged
     c_bands:  1 eigenvalues not converged
     ethr =  1.00E-02,  avg # of iterations = 10.7

     total cpu time spent up to now is      210.1 secs

     total energy              =   -2104.35870611 Ry
     Harris-Foulkes estimate   =   -2112.89075650 Ry
     estimated scf accuracy    <      13.15645007 Ry

     iteration #  4     ecut=    40.00 Ry     beta=0.70
     CG style diagonalization
     ethr =  8.33E-03,  avg # of iterations =  3.6

     total cpu time spent up to now is      229.2 secs

     total energy              =   -2107.25071450 Ry
     Harris-Foulkes estimate   =   -2108.20174362 Ry
     estimated scf accuracy    <       1.44109732 Ry

     iteration #  5     ecut=    40.00 Ry     beta=0.70
     CG style diagonalization
     ethr =  9.12E-04,  avg # of iterations =  4.3

     total cpu time spent up to now is      252.5 secs

     total energy              =   -2107.79801014 Ry
     Harris-Foulkes estimate   =   -2107.88194206 Ry
     estimated scf accuracy    <       0.13163744 Ry

     iteration #  6     ecut=    40.00 Ry     beta=0.70
     CG style diagonalization
     c_bands:  1 eigenvalues not converged
     c_bands:  1 eigenvalues not converged
     c_bands:  1 eigenvalues not converged
     c_bands:  1 eigenvalues not converged
     c_bands:  1 eigenvalues not converged
     c_bands:  1 eigenvalues not converged
     c_bands:  1 eigenvalues not converged
     c_bands:  1 eigenvalues not converged
     c_bands:  1 eigenvalues not converged
     c_bands:  1 eigenvalues not converged
     c_bands:  1 eigenvalues not converged
     c_bands:  2 eigenvalues not converged
     ethr =  8.33E-05,  avg # of iterations =  4.3

     total cpu time spent up to now is      275.7 secs

     total energy              =   -2107.83414949 Ry
     Harris-Foulkes estimate   =   -2107.83525465 Ry
     estimated scf accuracy    <       0.00240151 Ry

     iteration #  7     ecut=    40.00 Ry     beta=0.70
     CG style diagonalization
     c_bands:  1 eigenvalues not converged
     c_bands:  1 eigenvalues not converged
     c_bands:  1 eigenvalues not converged
     c_bands:  1 eigenvalues not converged
     c_bands:  1 eigenvalues not converged
     c_bands:  2 eigenvalues not converged
     c_bands:  1 eigenvalues not converged
     c_bands:  1 eigenvalues not converged
     c_bands:  1 eigenvalues not converged
     c_bands:  1 eigenvalues not converged
     c_bands:  1 eigenvalues not converged
     c_bands:  2 eigenvalues not converged
     c_bands:  2 eigenvalues not converged
     c_bands:  1 eigenvalues not converged
     c_bands:  1 eigenvalues not converged
     c_bands:  1 eigenvalues not converged
     c_bands:  2 eigenvalues not converged
     c_bands:  1 eigenvalues not converged
     c_bands:  1 eigenvalues not converged
     c_bands:  2 eigenvalues not converged
     ethr =  1.52E-06,  avg # of iterations =  5.4

     total cpu time spent up to now is      304.8 secs

     total energy              =   -2107.83597579 Ry
     Harris-Foulkes estimate   =   -2107.83603452 Ry
     estimated scf accuracy    <       0.00010072 Ry

     iteration #  8     ecut=    40.00 Ry     beta=0.70
     CG style diagonalization
     c_bands:  1 eigenvalues not converged
     c_bands:  1 eigenvalues not converged
     c_bands:  1 eigenvalues not converged
     c_bands:  1 eigenvalues not converged
     ethr =  6.37E-08,  avg # of iterations =  4.1

     total cpu time spent up to now is      324.6 secs

     End of self-consistent calculation

          k = 0.0000 0.0000 0.0000 (  2601 PWs)   bands (ev):

   -89.1157 -88.9975 -44.7926 -44.7926 -44.7926 -44.7764 -44.7764 -44.7764
   -23.4496 -23.0836 -23.0836 -22.0831 -22.0831 -22.0831   2.2798   2.2798
     2.8244   4.6752   4.6752   4.6752   5.9615   5.9615   5.9615   6.2272
     6.2272   6.2272   6.5268   6.5268   6.5268   8.5706   8.5706   8.5706
    15.1106  15.1106  15.3128  15.3128  15.4520  15.4520  15.4520  15.5414
    15.5414  15.5414  28.0967  28.9078  33.0779  33.0779  33.0779  34.2134
    34.2134  34.2134  35.0106  35.1516  35.1516  35.8294  38.9056  38.9056
    38.9056  39.2727  39.2727  39.3897  39.3897  39.3897  42.0213  42.0213
    42.0213  45.1418  45.1418  45.8044  45.8044  45.8044  46.0099  46.0099
    46.0099  46.0290  48.6593  48.6593  48.6593  49.4800  49.6628  49.6628
    49.9255  49.9255  49.9255  53.3601  53.3601  53.3601  53.5163  53.5163
    53.5163  54.1585  54.1585  54.1586  56.1848  56.1850  56.4127

          k = 0.0000 0.0000 0.1429 (  2657 PWs)   bands (ev):

   -89.2045 -89.1278 -44.8129 -44.8129 -44.8088 -44.7953 -44.7953 -44.7946
   -23.4247 -23.0988 -23.0471 -22.1537 -22.0943 -22.0943   2.2820   2.3876
     2.9075   4.6681   4.6681   4.7492   5.8906   5.8906   5.9686   6.1342
     6.3165   6.3165   6.4787   6.4894   6.4894   8.1897   8.5597   8.5597
    15.1092  15.1523  15.2975  15.3128  15.4188  15.4188  15.4521  15.5075
    15.5075  15.5286  28.2586  28.8209  33.2556  33.2556  33.6481  33.8268
    34.3862  34.3862  35.0720  35.1341  35.7992  36.0165  38.1563  38.1563
    38.4278  38.8406  39.3082  39.5772  39.9982  39.9982  42.0279  42.0279
    42.1597  44.5311  44.6545  45.2972  45.2972  45.6809  45.6809  46.1860
    46.3669  46.4554  47.2831  48.0632  48.4331  48.4331  49.4441  50.3154
    50.3154  51.2549  51.4399  53.0723  53.3662  53.3663  53.6128  53.6128
    53.6243  54.0938  54.6044  54.6044  55.2436  55.7969  56.6322

          k = 0.0000 0.0000 0.2857 (  2677 PWs)   bands (ev):

   -89.2261 -89.1846 -44.8161 -44.8157 -44.8157 -44.8122 -44.8011 -44.8011
   -23.3602 -23.1389 -22.9397 -22.3134 -22.0971 -22.0971   2.3253   2.4703
     3.4818   4.6568   4.6568   4.9465   5.8434   5.8434   5.8581   6.0432
     6.3950   6.4131   6.4131   6.4915   6.4915   7.1723   8.5449   8.5449
    15.1205  15.2303  15.2745  15.3127  15.3127  15.3241  15.4606  15.4869
    15.4869  15.5130  28.6552  28.7330  33.3894  33.7030  33.7030  34.8172
    34.8172  35.0098  35.0744  35.2125  36.5403  36.8616  37.4974  37.4974
    37.5425  38.5912  39.2646  39.5033  39.9003  39.9003  41.8905  42.0752
    42.0752  43.7544  43.9837  44.7628  44.7628  45.4352  45.4352  45.7736
    46.4211  46.6130  46.8648  47.7193  47.7193  48.1994  48.8063  50.7269
    50.7269  52.4727  52.6636  52.9979  53.0068  53.0068  53.1813  54.4152
    54.5099  54.5099  54.7099  54.9804  54.9805  55.6275  56.3765

          k = 0.0000 0.0000 0.4286 (  2658 PWs)   bands (ev):

   -89.1704 -89.1669 -44.8067 -44.8067 -44.8040 -44.8031 -44.8031 -44.7978
   -23.2760 -23.1953 -22.7570 -22.5318 -22.0962 -22.0962   2.3816   2.4373
     4.5416   4.6465   4.6465   5.2392   5.5083   5.8344   5.8344   5.8971
     6.1556   6.2819   6.3874   6.3874   6.5958   6.5958   8.5411   8.5411
    15.1588  15.2059  15.2193  15.2193  15.3166  15.3358  15.4755  15.4822
    15.4822  15.4956  28.7948  28.8762  33.7629  34.1351  34.1351  35.0415
    35.0526  35.1065  35.1865  35.1865  37.1207  37.2879  37.3066  37.3066
    38.0497  38.8456  39.1640  39.1640  39.2987  39.4111  41.3640  42.0304
    42.0304  43.3717  43.4938  43.5985  44.3616  44.3616  46.1941  46.1941
    46.7120  46.8792  46.9806  47.0347  47.0347  47.6542  50.2563  50.4144
    50.4144  51.9249  52.3326  52.7095  52.7095  53.1167  53.8678  54.2343
    54.8400  54.8401  55.3993  55.9153  56.2839  56.2840  56.8339

          k = 0.0000 0.1667 0.0000 (  2653 PWs)   bands (ev):

   -89.1910 -89.1277 -44.8110 -44.8110 -44.8046 -44.7953 -44.7953 -44.7947
   -23.4146 -23.1023 -23.0338 -22.1743 -22.0946 -22.0946   2.2879   2.4156
     2.9598   4.6683   4.6683   4.7798   5.8805   5.8805   5.9780   6.0991
     6.3410   6.3410   6.4681   6.4845   6.4845   8.0614   8.5595   8.5595
    15.1103  15.1656  15.2937  15.3149  15.4059  15.4059  15.4532  15.5033
    15.5033  15.5266  28.3211  28.8007  33.3166  33.3166  33.7307  33.8418
    34.4462  34.4462  35.0773  35.1294  36.0269  36.0826  38.0223  38.0223
    38.2071  38.8154  39.3109  39.5771  40.0610  40.0610  42.0369  42.0369
    42.1802  44.3895  44.5395  45.1759  45.1759  45.6057  45.6057  46.2667
    46.4734  46.5433  47.0417  47.8491  48.3358  48.3358  49.3876  50.4223
    50.4223  51.5842  51.7018  52.9856  53.3331  53.3332  53.7275  53.7353
    53.7353  54.0032  54.6731  54.6731  55.0110  55.7234  56.7222

          k = 0.0000 0.1667 0.1429 (  2662 PWs)   bands (ev):

   -89.2211 -89.1348 -44.8166 -44.8152 -44.8093 -44.8067 -44.7933 -44.7894
   -23.3911 -23.0851 -23.0287 -22.1768 -22.1523 -22.0955   2.3478   2.5546
     2.9978   4.6760   4.7431   4.7727   5.7882   5.7963   6.0632   6.1733
     6.2826   6.3781   6.3936   6.4607   6.5411   8.0478   8.1813   8.5542
    15.1341  15.1826  15.2932  15.3113  15.3988  15.4050  15.4209  15.4590
    15.4821  15.5212  28.4889  28.7788  33.5020  33.5167  33.9375  34.0890
    34.2706  34.6261  35.1061  35.7469  36.0426  36.2549  37.3164  37.7053
    38.6303  38.7796  38.9907  39.3569  40.2718  40.3028  41.8731  41.9375
    42.2195  43.7685  44.3221  44.9753  45.0597  45.2250  45.7372  46.1184
    46.2779  46.5939  46.8538  47.7404  47.7881  48.4629  48.9268  50.5938
    50.6320  52.0010  52.7804  53.1379  53.2896  53.5452  53.6751  53.7471
    54.2750  54.2981  54.5916  54.7126  54.9801  55.2416  56.2854

          k = 0.0000 0.1667 0.2857 (  2666 PWs)   bands (ev):

   -89.2014 -89.1716 -44.8134 -44.8113 -44.8099 -44.8076 -44.8016 -44.7954
   -23.3233 -23.1036 -22.9386 -22.3165 -22.1751 -22.0969   2.3853   2.7379
     3.4729   4.6910   4.7608   4.9393   5.6695   5.7220   6.0424   6.0799
     6.3352   6.3554   6.4280   6.5031   6.5561   7.1906   8.0451   8.5436
    15.1519  15.2389  15.2761  15.3092  15.3196  15.3296  15.4080  15.4277
    15.4506  15.5292  28.7950  28.8592  33.6215  33.9793  33.9822  34.4497
    35.0719  35.0814  35.4843  35.9307  36.4496  36.7087  37.2848  37.4093
    37.9125  38.6230  38.7586  39.3920  39.9970  40.3559  41.4304  41.5966
    42.3039  42.9372  44.1381  44.1781  44.7160  44.7546  45.4710  45.5674
    46.2341  46.5189  46.5677  47.2285  48.0975  48.3247  48.6420  50.7955
    50.7984  52.6489  53.0732  53.0940  53.4249  53.4602  53.9215  54.0715
    54.0748  54.5758  54.8767  55.3134  55.4561  55.7569  55.9133

          k = 0.0000 0.1667 0.4286 (  2658 PWs)   bands (ev):

   -89.1812 -89.1592 -44.8099 -44.8083 -44.8062 -44.8024 -44.8020 -44.7931
   -23.2448 -23.1529 -22.7605 -22.5344 -22.1749 -22.0986   2.4051   2.7471
     4.4861   4.7017   4.7852   5.1990   5.4784   5.7190   5.8252   5.9698
     6.0118   6.3562   6.3588   6.5181   6.5324   6.6051   8.0406   8.5410
    15.1638  15.2032  15.2153  15.2621  15.3238  15.3354  15.4119  15.4268
    15.4304  15.5363  28.9343  29.0474  33.9020  34.3052  34.4608  34.8800
    35.0438  35.1853  35.4257  35.9647  37.0405  37.0496  37.4408  37.5348
    38.1522  38.2061  39.0177  39.1616  39.4618  40.3747  41.0701  41.3646
    42.2896  42.4717  43.4474  43.4639  44.1183  44.3558  45.3304  45.4033
    45.9867  46.4287  46.8669  46.9269  47.3054  48.3564  50.2934  50.3049
    50.9617  52.0110  52.7393  52.8499  53.3221  53.6409  53.9146  53.9163
    54.0604  55.3707  55.4965  55.7880  56.0082  56.5066  56.5459

          k = 0.0000 0.3333 0.0000 (  2677 PWs)   bands (ev):

   -89.2263 -89.1832 -44.8152 -44.8152 -44.8134 -44.8062 -44.8062 -44.8048
   -23.3329 -23.1572 -22.8856 -22.3858 -22.0957 -22.0957   2.3434   2.4669
     3.7869   4.6517   4.6517   5.0333   5.7429   5.8364   5.8364   6.0778
     6.3630   6.4032   6.4032   6.5313   6.5313   6.7709   8.5375   8.5375
    15.1315  15.2333  15.2739  15.2739  15.2821  15.3307  15.4641  15.4842
    15.4842  15.5071  28.7372  28.7666  33.3953  33.8693  33.8693  34.9686
    34.9686  35.0606  35.0662  35.7741  36.2674  36.7722  37.3768  37.3768
    38.2520  38.4456  39.2107  39.4650  39.6643  39.6643  41.5664  42.0643
    42.0643  43.5713  43.7897  44.6202  44.6202  45.1463  45.6012  45.6012
    46.4054  46.7204  46.9330  47.4832  47.4832  48.4358  48.8009  50.6800
    50.6800  52.3401  52.4105  52.8789  52.8790  53.3389  53.6343  54.4000
    54.6581  54.6581  54.7084  55.3711  55.3712  55.7300  56.3676

          k = 0.0000 0.3333 0.1429 (  2660 PWs)   bands (ev):

   -89.1828 -89.1660 -44.8125 -44.8077 -44.8073 -44.8039 -44.8017 -44.7936
   -23.3033 -23.1271 -22.8866 -22.3842 -22.1554 -22.0974   2.3893   2.6611
     3.7815   4.6856   4.7339   5.0295   5.6371   5.7388   5.9650   6.0809
     6.3208   6.3689   6.4569   6.5203   6.5538   6.7950   8.1732   8.5455
    15.1533  15.2326  15.2725  15.2784  15.3022  15.3291  15.4219  15.4406
    15.4522  15.5276  28.8062  28.9154  33.5636  34.0541  34.0854  34.6983
    35.0741  35.1586  35.7013  35.9047  36.1646  36.8554  37.2695  37.4539
    38.3802  38.5009  38.6543  39.3091  39.7230  40.2645  41.2563  41.6230
    42.2867  42.9147  44.0669  44.0698  44.6432  44.7128  45.3781  45.3874
    46.3149  46.4065  46.6790  47.1372  48.1059  48.1550  49.0469  50.7016
    50.7181  52.3741  52.8357  52.9712  53.4302  53.7329  53.8592  53.9003
    54.2794  54.8964  54.9644  55.5818  55.6211  55.9840  56.1077

          k = 0.0000 0.3333 0.2857 (  2658 PWs)   bands (ev):

   -89.1914 -89.1534 -44.8097 -44.8096 -44.8053 -44.8025 -44.8016 -44.7938
   -23.2479 -23.0490 -22.8761 -22.3960 -22.3067 -22.0997   2.4060   3.3328
     3.7845   4.7605   4.9115   5.0028   5.5525   5.6208   5.9027   6.0503
     6.2743   6.3497   6.4667   6.5813   6.6104   6.8004   7.2165   8.5361
    15.1742  15.2205  15.2560  15.3079  15.3213  15.3240  15.3296  15.3671
    15.4076  15.5566  29.0032  29.2239  33.9326  34.2457  34.5244  34.6670
    35.0384  35.6664  35.9518  36.3488  36.7473  36.8080  37.4472  37.5528
    38.2375  38.5737  38.7492  39.4557  39.8672  40.3432  40.7995  40.9463
    41.9221  41.9342  43.3813  43.7177  44.1469  44.5964  44.7076  45.4215
    45.7924  45.7971  46.4611  46.9646  47.0253  48.8361  49.7242  50.5722
    51.3178  52.2192  53.1081  53.1212  53.3129  53.4137  53.6403  54.2686
    54.4418  55.0355  55.1380  55.4251  56.1145  56.4442  56.6136

          k = 0.0000 0.3333 0.4286 (  2654 PWs)   bands (ev):

   -89.1677 -89.1585 -44.8123 -44.8084 -44.8073 -44.8070 -44.7902 -44.7899
   -23.2117 -22.9922 -22.7642 -22.5472 -22.3753 -22.0989   2.4147   3.6847
     4.4524   4.8293   4.9842   5.0913   5.5303   5.5857   5.7327   5.7983
     6.0229   6.2976   6.3525   6.5645   6.6372   6.6374   6.8276   8.5231
    15.1596  15.1897  15.1936  15.2869  15.3051  15.3236  15.3587  15.3732
    15.3852  15.5717  29.2632  29.3987  33.7739  34.5972  34.9381  35.0567
    35.3457  35.5323  36.0495  36.4123  36.7426  36.7873  37.8348  38.1033
    38.4378  38.7010  38.7400  39.8153  40.0701  40.5171  40.6352  40.7769
    41.3203  41.3411  42.9156  43.2681  43.3089  43.9658  44.7669  44.9138
    45.1643  45.3049  45.6762  46.8572  47.3284  49.3892  50.1103  50.6579
    51.3336  51.5025  52.5686  53.0720  53.3718  53.6156  53.6685  54.2876
    54.7738  55.3061  55.3577  55.8426  56.3359  56.7900  57.2904

          k = 0.0000-0.5000 0.0000 (  2666 PWs)   bands (ev):

   -89.1827 -89.1827 -44.8074 -44.8074 -44.8074 -44.8074 -44.8039 -44.8039
   -23.2354 -23.2354 -22.6475 -22.6475 -22.0966 -22.0966   2.4069   2.4069
     4.6449   4.6449   5.1441   5.1441   5.4227   5.4227   5.8329   5.8329
     6.2178   6.2178   6.3787   6.3787   6.6107   6.6107   8.5397   8.5397
    15.1812  15.1812  15.2050  15.2050  15.3300  15.3300  15.4806  15.4806
    15.4848  15.4848  28.8507  28.8507  34.2068  34.2068  34.3361  34.3361
    35.0485  35.0485  35.2365  35.2365  37.3198  37.3198  37.6832  37.6832
    38.1128  38.1128  39.0014  39.0014  39.3947  39.3947  42.0186  42.0186
    42.3191  42.3191  43.3747  43.3747  44.2897  44.2897  46.6049  46.6049
    46.7017  46.7017  46.9522  46.9522  47.1337  47.1337  50.3040  50.3040
    51.3448  51.3448  52.4182  52.4182  52.6565  52.6566  54.1615  54.1615
    54.8861  54.8861  55.7738  55.7739  56.6542  56.6540  57.2033

          k = 0.0000-0.5000 0.1429 (  2666 PWs)   bands (ev):

   -89.1837 -89.1834 -44.8133 -44.8132 -44.8066 -44.8065 -44.7994 -44.7992
   -23.2286 -23.1873 -22.6540 -22.6469 -22.1550 -22.0977   2.4097   2.6570
     4.6811   4.6889   5.1542   5.1579   5.3309   5.4472   5.7449   5.8989
     6.0394   6.3328   6.3555   6.5060   6.5452   6.6149   8.1650   8.5373
    15.1644  15.1941  15.2020  15.2441  15.3324  15.3324  15.4312  15.4338
    15.4390  15.5292  28.9667  28.9731  34.2506  34.2707  34.4552  34.6103
    35.0394  35.0658  35.4053  35.7417  37.1351  37.3205  37.7476  37.8029
    37.9284  38.1803  38.5072  38.9940  39.4579  40.3560  41.4655  41.7614
    42.1969  42.6021  42.6066  43.5558  43.9720  44.3610  45.4739  45.8006
    46.0541  46.5565  46.8698  47.0357  47.1215  48.1950  50.1743  50.5027
    51.2747  51.7243  52.5492  52.7697  53.1867  53.5448  53.6339  53.9304
    54.0651  55.5560  55.8339  56.0725  56.3145  56.4082  56.8317

          k = 0.0000-0.5000 0.2857 (  2658 PWs)   bands (ev):

   -89.1704 -89.1698 -44.8126 -44.8125 -44.8085 -44.8082 -44.7905 -44.7903
   -23.2113 -23.0492 -22.6676 -22.6474 -22.3117 -22.1000   2.4117   3.3696
     4.7393   4.7968   5.1534   5.2080   5.2190   5.5288   5.6180   5.7797
     5.9832   6.3039   6.3957   6.5234   6.6110   6.6359   7.2101   8.5249
    15.1536  15.1891  15.2009  15.2940  15.3173  15.3293  15.3544  15.3781
    15.3917  15.5646  29.2531  29.2646  33.8950  34.7198  34.9882  35.0158
    35.0312  35.1750  35.8421  36.7135  36.9255  37.0007  37.5496  37.8831
    38.2590  38.4110  38.7703  39.5275  39.7678  40.6819  40.8820  41.5265
    41.6787  41.7208  42.1256  42.9307  43.5452  44.3981  44.7896  45.0956
    45.1078  45.6697  45.8669  46.9409  47.2321  49.4142  49.9310  51.1580
    51.2278  51.5609  52.4821  52.9334  52.9799  53.4897  54.1925  54.2753
    54.9076  55.0769  55.2113  56.1786  56.1911  56.2117  56.8467

          k = 0.0000-0.5000 0.4286 (  2662 PWs)   bands (ev):

   -89.1780 -89.1779 -44.8120 -44.8116 -44.8111 -44.8111 -44.7930 -44.7926
   -23.2014 -22.8634 -22.6801 -22.6639 -22.4984 -22.0988   2.4218   4.3971
     4.7637   4.9204   5.0595   5.2400   5.2617   5.5499   5.5730   5.6370
     5.7524   6.2075   6.2441   6.2681   6.6493   6.6597   6.6669   8.5123
    15.1461  15.1548  15.1574  15.2480  15.3146  15.3179  15.3700  15.3826
    15.3845  15.5838  29.5193  29.5229  33.4631  34.7578  34.9602  35.3747
    35.7792  36.2381  36.3165  36.3291  36.3306  36.7382  37.4831  38.3860
    38.4736  38.4995  40.1278  40.1388  40.2120  40.5177  40.7145  40.9135
    40.9721  41.7121  41.7939  42.9268  43.0892  43.3456  43.3824  44.1472
    45.0251  45.0433  45.6205  46.6334  47.6463  49.7566  49.7696  50.9129
    50.9426  51.1108  52.7225  53.0604  53.0750  53.2395  54.2224  54.6841
    55.0944  55.3343  55.9874  56.0977  56.8065  56.9887  57.2976

          k = 0.2000 0.0000 0.0000 (  2661 PWs)   bands (ev):

   -89.2243 -89.1268 -44.8156 -44.8156 -44.8122 -44.7953 -44.7953 -44.7947
   -23.4038 -23.1104 -23.0126 -22.2076 -22.0949 -22.0949   2.2972   2.4456
     3.0624   4.6655   4.6655   4.8212   5.8668   5.8668   5.9935   6.0360
     6.3710   6.3710   6.4511   6.4787   6.4787   7.8448   8.5533   8.5533
    15.1120  15.1854  15.2877  15.3170  15.3833  15.3833  15.4550  15.4964
    15.4964  15.5230  28.4107  28.7753  33.4135  33.4135  33.6009  34.1506
    34.5397  34.5397  35.0807  35.1228  36.1905  36.3932  37.8481  37.8481
    37.8663  38.7699  39.3086  39.5657  40.0954  40.0954  42.0522  42.0522
    42.1775  44.1950  44.3782  45.0284  45.0284  45.5062  45.5062  46.3743
    46.5603  46.6544  46.6993  47.6833  48.1733  48.1733  49.2792  50.5563
    50.5563  52.0165  52.0564  52.8813  53.2518  53.2518  53.7095  53.8946
    53.9592  53.9593  54.7375  54.7375  54.8068  55.6490  56.7954

          k = 0.2000 0.0000 0.1429 (  2667 PWs)   bands (ev):

   -89.2100 -89.1649 -44.8161 -44.8149 -44.8121 -44.8067 -44.7967 -44.7944
   -23.3768 -23.0903 -23.0107 -22.2091 -22.1535 -22.0969   2.3569   2.6030
     3.0810   4.6774   4.7409   4.8128   5.7670   5.7694   6.0772   6.1366
     6.3111   6.3575   6.4176   6.4532   6.5430   7.8364   8.1766   8.5518
    15.1372  15.1991  15.2882  15.3131  15.3811  15.3815  15.4208  15.4508
    15.4745  15.5219  28.5781  28.7678  33.5915  33.6029  33.8359  34.1971
    34.5366  34.7228  35.1034  35.7563  36.3549  36.3795  37.1187  37.5798
    38.3892  38.7489  38.9951  39.3583  40.2656  40.3344  41.8261  41.8567
    42.2510  43.5628  44.2485  44.7844  44.9902  45.0812  45.6779  46.1365
    46.3445  46.3660  46.8833  47.6171  47.7663  48.4074  48.8174  50.6337
    50.7113  52.3039  53.0027  53.0723  53.3695  53.5292  53.8264  53.9047
    54.0551  54.2957  54.5571  54.8955  54.9653  55.2233  56.1588

          k = 0.2000 0.0000 0.2857 (  2659 PWs)   bands (ev):

   -89.1838 -89.1639 -44.8086 -44.8077 -44.8069 -44.8032 -44.8031 -44.7952
   -23.3077 -23.0896 -22.9360 -22.3176 -22.2070 -22.0975   2.3915   2.8713
     3.4777   4.7041   4.8014   4.9364   5.6447   5.6922   6.0572   6.0717
     6.3368   6.3579   6.4086   6.5167   6.5717   7.1919   7.8423   8.5438
    15.1602  15.2409  15.2816  15.3071  15.3183  15.3346  15.3858  15.4067
    15.4399  15.5360  28.8249  28.9369  33.7191  34.0635  34.0946  34.3667
    35.0765  35.1772  35.6326  36.1106  36.5276  36.7584  37.2410  37.3722
    37.8401  38.6292  38.7066  39.4787  39.9753  40.3769  41.3080  41.4500
    42.2910  42.6995  43.9849  44.1129  44.6061  44.6571  45.4192  45.5088
    46.1056  46.5077  46.6016  47.1341  47.7571  48.4473  48.7981  50.7931
    50.9511  52.7080  53.1562  53.2258  53.3865  53.5002  53.8551  53.9899
    54.0595  54.6949  54.9007  55.3754  55.6033  55.9083  55.9977

          k = 0.2000 0.0000 0.4286 (  2660 PWs)   bands (ev):

   -89.1846 -89.1632 -44.8113 -44.8093 -44.8090 -44.8028 -44.7988 -44.7951
   -23.2371 -23.1295 -22.7620 -22.5366 -22.2077 -22.0991   2.4067   2.8900
     4.4743   4.7231   4.8256   5.1795   5.4757   5.6871   5.8204   5.9553
     5.9894   6.3437   6.4015   6.4903   6.5615   6.6102   7.8355   8.5391
    15.1636  15.2055  15.2128  15.2729  15.3271  15.3362  15.3865  15.4078
    15.4188  15.5447  28.9895  29.1143  33.9382  34.3802  34.6001  34.7863
    35.0376  35.2466  35.5262  36.3182  36.9825  37.0542  37.2456  37.5959
    38.1987  38.2570  39.1136  39.1319  39.5270  40.4860  41.0096  41.1797
    42.2090  42.3111  43.1605  43.4102  44.1221  44.3632  45.1054  45.2379
    45.8197  46.2683  46.7324  46.9372  47.1578  48.6256  50.2704  50.4051
    51.1166  52.0273  52.8328  52.8946  53.0435  53.6285  53.9048  54.2373
    54.2944  55.1866  55.3429  55.6421  56.0890  56.3784  56.4975

          k = 0.2000 0.1667 0.0000 (  2672 PWs)   bands (ev):

   -89.2076 -89.1888 -44.8215 -44.8138 -44.8116 -44.8074 -44.8041 -44.7930
   -23.3686 -23.0865 -23.0057 -22.2118 -22.1740 -22.0971   2.3631   2.6642
     3.0940   4.6824   4.7668   4.8106   5.7440   5.7504   6.0848   6.1504
     6.2994   6.3488   6.4276   6.4387   6.5509   7.8337   8.0499   8.5482
    15.1422  15.2059  15.2876  15.3128  15.3792  15.3797  15.4072  15.4361
    15.4675  15.5242  28.6325  28.7663  33.6447  33.6682  33.9102  34.1188
    34.6741  34.7850  35.1014  35.9624  36.3805  36.4115  37.0041  37.5074
    38.3669  38.7387  38.9078  39.3792  40.2805  40.3567  41.7611  41.7906
    42.2642  43.4039  44.2201  44.6741  44.8974  45.0243  45.7032  46.1010
    46.2096  46.3482  46.9449  47.5083  47.7897  48.4320  48.6525  50.7166
    50.7482  52.4400  53.0794  53.1790  53.3296  53.5741  53.8646  53.9434
    54.0722  54.4723  54.4798  54.8672  54.9256  55.1792  56.0649

          k = 0.2000 0.1667 0.1429 (  2665 PWs)   bands (ev):

   -89.2056 -89.1640 -44.8178 -44.8113 -44.8104 -44.8091 -44.7962 -44.7927
   -23.3368 -23.0560 -23.0169 -22.2122 -22.1765 -22.1512   2.5790   2.6879
     3.0982   4.7555   4.7800   4.8197   5.5387   5.9426   6.0034   6.2250
     6.2738   6.3281   6.3670   6.5065   6.5349   7.8352   8.0453   8.1771
    15.1791  15.2057  15.2912  15.3045  15.3626  15.3826  15.4017  15.4182
    15.4547  15.4783  28.7892  28.8035  33.8120  33.8410  34.1251  34.3253
    34.4766  35.0431  35.7341  35.9753  36.3348  36.5632  36.8734  37.0632
    38.4800  38.7264  39.0666  39.2931  40.1539  40.3049  41.4726  41.5000
    42.2980  43.5217  43.7995  44.5732  44.6753  44.8382  45.0052  46.0558
    46.2140  46.2810  47.2459  47.4173  47.8849  48.2075  48.2636  50.4731
    50.9584  52.9483  53.0501  53.2534  53.7506  53.8127  54.1230  54.2055
    54.2588  54.4922  54.5209  55.0200  55.1207  55.5572  56.1025

          k = 0.2000 0.1667 0.2857 (  2655 PWs)   bands (ev):

   -89.1957 -89.1341 -44.8114 -44.8083 -44.8052 -44.8034 -44.7969 -44.7910
   -23.2613 -23.0558 -22.9453 -22.3193 -22.2091 -22.1743   2.7084   2.8965
     3.4590   4.7974   4.8369   4.9581   5.3975   5.9083   5.9793   6.1102
     6.2488   6.3595   6.4317   6.5154   6.5571   7.2061   7.8416   8.0454
    15.2015  15.2468  15.2647  15.3051  15.3220  15.3472  15.3595  15.3751
    15.4375  15.4730  28.9298  29.1257  33.9618  34.2371  34.3830  34.6285
    34.8460  35.8975  36.0277  36.1144  36.4975  36.5589  36.9753  37.5986
    37.8743  38.6941  38.8921  39.3327  39.8354  40.2431  40.8125  40.9743
    42.4041  42.9579  43.6205  43.8503  44.1160  44.5075  44.6125  45.6327
    46.1394  46.3517  46.6702  46.9212  47.5990  48.0366  48.9556  50.4497
    50.9980  53.0222  53.2832  53.2917  53.5813  53.7014  53.8028  54.3520
    54.7027  55.1232  55.2014  55.6129  55.7666  55.9994  56.2826

          k = 0.2000 0.1667 0.4286 (  2655 PWs)   bands (ev):

   -89.1680 -89.1579 -44.8105 -44.8079 -44.8038 -44.8033 -44.7965 -44.7939
   -23.1819 -23.1079 -22.7663 -22.5395 -22.2091 -22.1762   2.7441   2.8970
     4.4505   4.8107   4.8755   5.1887   5.3181   5.7687   5.8132   5.9080
     6.0989   6.1833   6.4986   6.5220   6.5394   6.5546   7.8376   8.0389
    15.1833  15.1897  15.2625  15.2761  15.3193  15.3282  15.3553  15.3640
    15.4479  15.4810  29.1426  29.2898  34.1365  34.6053  34.7602  34.9301
    35.2049  35.4522  35.9474  36.3151  36.7562  37.1437  37.4870  37.6781
    38.2307  38.3999  38.4900  39.0992  40.1739  40.3369  40.4523  40.8162
    41.7890  43.0113  43.2266  43.3998  43.5764  43.7177  44.5749  44.9491
    45.9243  46.0537  46.5241  46.7320  47.0321  47.7662  50.3125  50.8366
    50.8820  52.1775  53.1004  53.2903  53.6805  53.7989  54.0392  54.0663
    54.5689  54.7936  55.9274  56.0847  56.3947  56.7367  56.8566

          k = 0.2000 0.3333 0.0000 (  2656 PWs)   bands (ev):

   -89.1878 -89.1478 -44.8093 -44.8081 -44.8061 -44.8033 -44.8002 -44.7914
   -23.2821 -23.1013 -22.8863 -22.3863 -22.2070 -22.0973   2.3995   2.8875
     3.7751   4.7117   4.7987   5.0184   5.5966   5.6858   6.0147   6.0212
     6.3403   6.3753   6.4075   6.5504   6.5759   6.8026   7.8402   8.5405
    15.1639  15.2318  15.2693  15.2898  15.3117  15.3277  15.3865  15.4070
    15.4317  15.5397  28.8731  29.0319  33.7128  34.1873  34.2836  34.5452
    35.0631  35.3328  35.8743  36.0992  36.4696  36.8600  37.2712  37.3008
    38.3231  38.5382  38.6239  39.4440  39.6971  40.3550  41.0895  41.3401
    42.2870  42.4880  43.7006  44.1113  44.4643  44.5352  45.1016  45.3765
    46.1764  46.2198  46.7350  46.9875  47.5633  48.4610  49.2798  50.6872
    51.0079  52.4161  53.0214  53.1605  53.2149  53.6930  53.9001  54.1908
    54.2045  54.7986  55.0228  55.5926  55.8577  55.9229  56.3057

          k = 0.2000 0.3333 0.1429 (  2657 PWs)   bands (ev):

   -89.1920 -89.1448 -44.8101 -44.8080 -44.8046 -44.8033 -44.8010 -44.7929
   -23.2468 -23.0793 -22.8917 -22.3885 -22.2080 -22.1556   2.6405   2.8980
     3.7597   4.7865   4.8248   5.0323   5.4023   5.8523   5.9355   6.1003
     6.2278   6.3670   6.4778   6.5099   6.5600   6.8218   7.8385   8.1692
    15.1925  15.2261  15.2722  15.3056  15.3126  15.3185  15.3621  15.3816
    15.4365  15.4922  28.9623  29.1719  33.8874  34.3418  34.4652  34.7347
    35.0756  35.6966  35.8745  36.3016  36.5214  36.6284  37.1256  37.6454
    38.2059  38.6254  38.7583  39.1789  39.7424  40.3249  40.6895  40.9773
    42.2539  42.8406  43.5578  43.9009  43.9919  44.3502  44.6338  45.3785
    46.1201  46.2939  46.5822  46.8760  47.3650  48.0995  49.4638  50.4529
    50.9742  52.6531  53.2483  53.3396  53.5681  53.7636  53.7828  54.2519
    54.5683  55.0797  55.3016  55.7050  55.9626  56.1179  56.4332

          k = 0.2000 0.3333 0.2857 (  2656 PWs)   bands (ev):

   -89.1849 -89.1460 -44.8111 -44.8092 -44.8064 -44.8015 -44.7984 -44.7915
   -23.1703 -23.0108 -22.8925 -22.3947 -22.3114 -22.2099   2.8853   3.3536
     3.7530   4.8710   4.9628   5.0624   5.2447   5.8735   5.9122   6.0499
     6.2398   6.2802   6.4326   6.5336   6.5759   6.8389   7.2166   7.8374
    15.2124  15.2273  15.2697  15.2855  15.3162  15.3261  15.3323  15.3491
    15.3835  15.4671  29.2062  29.4794  34.3165  34.5545  34.7208  34.9124
    35.2529  35.9741  36.1931  36.3583  36.8031  37.2623  37.4715  37.5456
    38.1493  38.8316  38.9685  39.1352  39.5947  39.7056  40.2804  40.4371
    42.2452  42.5623  42.9061  43.5123  43.6561  44.1121  44.1901  45.1912
    45.6223  45.8946  46.2702  46.6295  46.6691  47.9688  49.2051  50.7082
    50.8803  52.2422  53.2841  53.4667  53.6930  53.8573  54.1390  55.0028
    55.2321  55.4423  55.6993  55.9715  56.1326  56.5524  56.9246

          k = 0.2000 0.3333 0.4286 (  2643 PWs)   bands (ev):

   -89.1447 -89.1348 -44.8073 -44.8071 -44.7995 -44.7991 -44.7925 -44.7862
   -23.1171 -22.9734 -22.7701 -22.5470 -22.3790 -22.2121   2.8990   3.6934
     4.4347   4.9464   4.9654   5.1059   5.3405   5.7601   5.8098   5.8397
     6.0600   6.2096   6.3590   6.5119   6.5487   6.5865   6.8449   7.8382
    15.1768  15.1995  15.2413  15.2784  15.2991  15.3207  15.3431  15.3558
    15.3726  15.4839  29.5123  29.6661  34.1939  34.7307  35.1466  35.1926
    35.6914  35.9170  36.2046  36.5233  36.7105  37.4200  37.7754  38.0733
    38.4589  38.6323  38.8398  39.0493  39.7875  40.0177  40.2246  40.6002
    41.5653  42.3730  42.8253  43.0265  43.2030  43.7861  43.9263  44.4750
    44.9913  45.1257  45.5805  46.3817  46.7876  48.0146  49.2357  50.4714
    51.1554  51.5963  53.1189  53.4849  54.0578  54.2871  54.3643  54.8210
    55.4471  56.0526  56.1278  56.4486  56.6657  57.0156  57.4169

          k = 0.2000-0.5000 0.0000 (  2658 PWs)   bands (ev):

   -89.1686 -89.1683 -44.8067 -44.8066 -44.8051 -44.8050 -44.7993 -44.7991
   -23.2219 -23.1403 -22.6584 -22.6464 -22.2080 -22.0979   2.4107   2.8912
     4.7063   4.7257   5.1638   5.1738   5.2723   5.4748   5.6932   5.9364
     5.9392   6.3358   6.4114   6.4936   6.5612   6.6250   7.8377   8.5371
    15.1590  15.1992  15.2024  15.2667  15.3334  15.3377  15.3874  15.4092
    15.4158  15.5466  29.0691  29.0804  34.1480  34.4135  34.6905  34.7715
    35.0062  35.0305  35.5575  36.3192  37.0445  37.3006  37.3113  37.8050
    38.0675  38.2244  38.8568  38.9504  39.5341  40.6630  41.1412  41.6910
    42.0757  42.1437  42.7450  42.9663  44.1176  44.3238  45.2171  45.2368
    45.7314  46.2877  46.5912  46.9848  47.0808  48.7370  50.0767  50.8615
    51.2469  51.7990  52.6945  52.8375  53.0176  53.5551  53.7477  54.2645
    54.3342  55.2895  55.5862  55.7631  56.2484  56.4070  56.4228

          k = 0.2000-0.5000 0.1429 (  2658 PWs)   bands (ev):

   -89.1691 -89.1684 -44.8103 -44.8102 -44.8063 -44.8063 -44.7948 -44.7948
   -23.1732 -23.1334 -22.6576 -22.6523 -22.2090 -22.1564   2.6597   2.8914
     4.7403   4.7534   5.1690   5.1741   5.2882   5.3663   5.7744   5.8268
     6.0853   6.1965   6.5039   6.5117   6.5483   6.5633   7.8371   8.1643
    15.1720  15.1820  15.2472  15.2708  15.3260  15.3344  15.3595  15.3730
    15.4432  15.4977  29.1967  29.2007  34.3180  34.5278  34.7763  34.8071
    35.2038  35.3882  35.7435  36.3123  36.9672  37.1642  37.6734  37.8482
    38.0635  38.2781  38.4533  38.7526  40.1744  40.4960  40.8445  41.0103
    42.1463  42.2097  43.1066  43.1814  43.6003  43.8532  44.8222  44.8731
    45.8544  46.1276  46.4781  46.7160  47.1613  47.8312  50.3829  50.8590
    51.5274  51.6636  52.8890  53.2620  53.5366  53.5793  53.9546  54.3581
    54.5014  54.5188  55.9387  56.3092  56.5109  56.5345  56.9427

          k = 0.2000-0.5000 0.2857 (  2648 PWs)   bands (ev):

   -89.1498 -89.1488 -44.8072 -44.8072 -44.8030 -44.8030 -44.7905 -44.7905
   -23.1160 -23.0356 -22.6650 -22.6561 -22.3130 -22.2112   2.8984   3.3728
     4.7915   4.8351   5.1130   5.1527   5.2925   5.3983   5.7917   5.7944
     6.0768   6.1831   6.4089   6.5180   6.5443   6.5775   7.2130   7.8365
    15.1804  15.1839  15.2517  15.2904  15.2993  15.3089  15.3502  15.3555
    15.3949  15.4769  29.5079  29.5126  34.2890  34.7791  35.0680  35.1028
    35.5107  35.6732  36.2268  36.6880  36.8191  37.4868  37.6358  37.9167
    38.2539  38.3483  38.6763  38.9505  40.0309  40.0399  40.6043  40.7499
    42.0192  42.1316  42.6214  42.9792  43.1711  43.9038  44.0675  44.3331
    45.2968  45.5564  45.6783  46.5847  46.7111  47.6706  49.8155  50.4805
    51.4902  51.5732  53.2100  53.5308  53.7017  54.2559  54.2769  54.5098
    55.2816  55.4712  56.0750  56.6108  56.7434  56.7791  57.1501

          k = 0.2000-0.5000 0.4286 (  2646 PWs)   bands (ev):

   -89.1451 -89.1440 -44.8063 -44.8060 -44.8053 -44.8051 -44.7877 -44.7876
   -23.1018 -22.8421 -22.6764 -22.6645 -22.5142 -22.2136   2.9016   4.4064
     4.7905   4.9420   5.0190   5.1332   5.2828   5.6035   5.6474   5.7653
     5.8533   6.1970   6.2449   6.2503   6.5602   6.5630   6.5924   7.8344
    15.1675  15.1810  15.2022  15.2509  15.2869  15.3280  15.3316  15.3759
    15.3786  15.4956  29.8002  29.8015  33.9104  34.6768  35.2778  35.7849
    36.1558  36.2069  36.3239  36.5734  36.6135  37.1144  37.6861  38.3159
    38.3375  38.4480  38.5629  39.7298  40.3737  40.5338  40.7426  40.8005
    41.8554  42.1056  42.1746  42.6349  42.7365  42.9849  43.3267  43.9712
    44.4439  44.6784  44.9476  46.2812  47.1013  48.3778  48.7209  49.9266
    51.1671  51.2509  52.6264  53.6823  53.7575  54.4514  55.0668  55.6440
    55.9213  56.6586  56.7623  56.8486  56.9784  57.2869  57.4525

          k = 0.4000 0.0000 0.0000 (  2657 PWs)   bands (ev):

   -89.1959 -89.1365 -44.8109 -44.8109 -44.8053 -44.7999 -44.7999 -44.7929
   -23.2917 -23.1831 -22.7984 -22.4859 -22.0953 -22.0953   2.3709   2.4484
     4.3061   4.6483   4.6483   5.1772   5.5864   5.8342   5.8342   6.1333
     6.1585   6.3098   6.3930   6.3930   6.5793   6.5793   8.5407   8.5407
    15.1492  15.2155  15.2324  15.2324  15.3075  15.3355  15.4734  15.4830
    15.4830  15.4992  28.7793  28.8624  33.6023  34.0718  34.0718  35.0536
    35.0554  35.1381  35.1381  35.4390  36.7089  37.1296  37.3078  37.3078
    38.1833  38.9777  39.1451  39.2986  39.2986  39.4228  41.2560  42.0399
    42.0399  43.4080  43.5685  44.1001  44.4254  44.4254  46.0006  46.0006
    46.5820  46.8410  46.9776  47.1697  47.1697  47.8846  49.7933  50.5020
    50.5020  52.0375  52.3446  52.7527  52.7528  53.5282  53.7287  54.1348
    54.7939  54.7940  55.2233  55.8984  56.0358  56.0359  56.7081

          k = 0.4000 0.0000 0.1429 (  2659 PWs)   bands (ev):

   -89.1884 -89.1564 -44.8092 -44.8091 -44.8088 -44.8028 -44.8005 -44.7939
   -23.2665 -23.1537 -22.8000 -22.4882 -22.1546 -22.0985   2.4005   2.6609
     4.2768   4.6882   4.7386   5.1577   5.5344   5.7400   5.9008   6.0597
     6.1457   6.3255   6.3703   6.5141   6.5326   6.5881   8.1682   8.5435
    15.1610  15.2094  15.2292  15.2614  15.3144  15.3342  15.4262  15.4398
    15.4432  15.5284  28.8693  28.9958  33.7352  34.2136  34.3044  34.9005
    35.0602  35.3206  35.3922  35.7523  36.7699  37.0367  37.3830  37.4241
    38.2825  38.3229  39.0713  39.3032  39.3184  40.2109  41.0308  41.5270
    42.2601  42.7167  43.7634  43.9335  44.0119  44.4805  45.4126  45.4832
    46.1456  46.5050  46.7946  47.0066  47.6336  48.1378  49.9022  50.4468
    50.7753  52.0948  52.7150  52.8588  53.4783  53.7150  53.8393  53.8973
    54.0252  55.1550  55.4937  55.8372  55.8571  56.4043  56.5444

          k = 0.4000 0.0000 0.2857 (  2657 PWs)   bands (ev):

   -89.1871 -89.1526 -44.8136 -44.8079 -44.8072 -44.8065 -44.7976 -44.7876
   -23.2257 -23.0462 -22.8032 -22.4970 -22.3108 -22.0995   2.4092   3.3623
     4.2461   4.7817   4.9161   5.0910   5.5186   5.6131   5.8311   5.9529
     6.1161   6.3260   6.4327   6.5016   6.6119   6.6195   7.2115   8.5295
    15.1669  15.2058  15.2156  15.2993  15.3192  15.3277  15.3416  15.3730
    15.3978  15.5620  29.1149  29.2934  33.8967  34.4772  34.6821  34.9518
    35.0238  35.6377  35.8218  36.5903  36.7814  36.8096  37.5486  37.6731
    38.4418  38.4529  39.0655  39.3970  39.8282  40.3858  40.7789  40.8182
    41.6759  41.8111  43.0596  43.6022  43.6443  44.3412  44.7494  45.2302
    45.3644  45.8361  45.9992  46.9749  47.1305  49.0686  50.3137  50.3261
    51.3586  51.9203  52.7035  53.0085  53.1285  53.6012  53.9526  54.3045
    54.7372  54.8568  55.4752  55.4917  55.9653  56.5954  56.8744

          k = 0.4000 0.0000 0.4286 (  2657 PWs)   bands (ev):

   -89.1757 -89.1620 -44.8147 -44.8106 -44.8090 -44.8047 -44.7940 -44.7886
   -23.2046 -22.9146 -22.7525 -22.5708 -22.4566 -22.0995   2.4181   4.1570
     4.4624   4.8800   5.0473   5.0607   5.5560   5.5709   5.6419   5.7760
     5.9063   6.2784   6.2894   6.3747   6.6172   6.6500   6.6573   8.5164
    15.1561  15.1658  15.1746  15.2593  15.3122  15.3199  15.3737  15.3756
    15.3788  15.5792  29.3965  29.4980  33.5911  34.6711  34.9672  35.3989
    35.5046  35.7662  36.2973  36.3610  36.5685  36.6018  37.7984  38.3411
    38.4707  38.5252  39.6735  40.1426  40.2792  40.4431  40.5568  40.6149
    40.9388  41.0733  42.8876  43.0570  43.2099  43.5580  43.9244  44.6307
    44.9948  45.1337  45.5889  46.7226  47.5154  49.5657  49.9790  50.7367
    51.1182  51.2812  52.7530  53.0772  53.1842  53.3694  53.9330  54.4864
    55.0239  55.2297  55.4879  56.1452  56.8618  56.9797  57.1842

          k = 0.4000 0.1667 0.0000 (  2659 PWs)   bands (ev):

   -89.1811 -89.1639 -44.8108 -44.8083 -44.8062 -44.8024 -44.8020 -44.7946
   -23.2591 -23.1418 -22.8009 -22.4891 -22.1749 -22.0989   2.4021   2.7481
     4.2704   4.7006   4.7653   5.1501   5.5252   5.7168   5.9147   6.0236
     6.1415   6.3526   6.3637   6.5182   6.5355   6.5918   8.0405   8.5425
    15.1632  15.2098  15.2281  15.2684  15.3170  15.3339  15.4108  15.4265
    15.4334  15.5355  28.9004  29.0403  33.7784  34.2602  34.3869  34.8384
    35.0539  35.3848  35.4049  35.9704  36.7964  37.0005  37.3673  37.4199
    38.2677  38.3112  39.1040  39.3108  39.3482  40.2851  40.9890  41.3979
    42.2952  42.5303  43.5691  43.8849  44.1199  44.4116  45.3039  45.3281
    46.0492  46.4065  46.8243  46.9552  47.4706  48.3186  49.9663  50.4299
    50.8980  52.1062  52.8094  52.8961  53.3177  53.7960  53.9327  53.9852
    54.0351  55.2063  55.3294  55.7132  55.9233  56.3439  56.5364

          k = 0.4000 0.1667 0.1429 (  2662 PWs)   bands (ev):

   -89.1842 -89.1703 -44.8113 -44.8106 -44.8069 -44.8050 -44.8027 -44.7941
   -23.2240 -23.1217 -22.8050 -22.4925 -22.1759 -22.1562   2.6437   2.7601
     4.2503   4.7717   4.8012   5.1495   5.3943   5.8166   5.8438   6.1023
     6.1307   6.1871   6.4951   6.5171   6.5378   6.5532   8.0385   8.1650
    15.1826  15.1962  15.2603  15.2686  15.3200  15.3276  15.3762  15.3849
    15.4637  15.4876  29.0024  29.1721  33.9252  34.4405  34.5419  35.0067
    35.1351  35.4267  35.7362  35.9812  36.8199  36.9627  37.3348  37.6309
    38.2834  38.3418  38.6854  39.1730  39.8483  40.3498  40.6185  41.0728
    41.9601  43.0644  43.4850  43.7653  43.8173  43.9104  44.8017  45.1745
    46.1326  46.2133  46.5838  47.0185  47.2798  47.8704  50.2876  50.4321
    50.8077  52.3313  53.0770  53.3067  53.5249  53.7013  53.9356  54.0548
    54.4392  54.7168  55.6023  55.9516  56.2877  56.5589  56.6320

          k = 0.4000 0.1667 0.2857 (  2650 PWs)   bands (ev):

   -89.1551 -89.1530 -44.8092 -44.8054 -44.8042 -44.8025 -44.7934 -44.7914
   -23.1640 -23.0298 -22.8094 -22.4962 -22.3121 -22.1776   2.7480   3.3694
     4.2300   4.8815   4.9310   5.1126   5.3103   5.7962   5.8345   6.0043
     6.1045   6.2326   6.4233   6.5409   6.5520   6.5912   7.2142   8.0389
    15.1853  15.2046  15.2555  15.2864  15.3113  15.3273  15.3381  15.3552
    15.3851  15.4985  29.2744  29.4804  34.1695  34.6645  34.8226  35.0252
    35.4830  35.7825  35.9342  36.4390  36.8717  37.3067  37.5351  37.6012
    38.3859  38.5930  38.8717  39.3326  39.7225  40.0069  40.2180  40.6406
    41.7328  42.5062  42.9957  43.3015  43.5909  43.9824  44.1625  44.8673
    45.4873  45.5666  46.0996  46.6092  46.8015  48.1830  49.6600  50.8651
    51.0197  51.9570  53.0952  53.3509  53.6925  53.8543  54.0613  54.5785
    55.1320  55.4339  55.7497  56.0868  56.3268  56.8814  57.0816

          k = 0.4000 0.1667 0.4286 (  2652 PWs)   bands (ev):

   -89.1597 -89.1544 -44.8097 -44.8093 -44.8069 -44.8027 -44.7951 -44.7870
   -23.1361 -22.9018 -22.7578 -22.5655 -22.4658 -22.1804   2.7543   4.1704
     4.4441   4.9841   4.9983   5.0348   5.4264   5.6803   5.7631   5.7988
     5.9477   6.2283   6.2893   6.3624   6.5758   6.5855   6.6167   8.0336
    15.1647  15.1832  15.2127  15.2569  15.3122  15.3249  15.3284  15.3686
    15.3739  15.5163  29.5826  29.6929  33.9055  34.6948  35.2700  35.4761
    35.7977  36.0213  36.2458  36.4660  36.5546  37.1462  37.6792  38.3006
    38.4967  38.6112  38.9455  39.4776  40.2056  40.2411  40.3415  40.5869
    41.4535  41.9558  42.7391  42.8796  43.0857  43.4248  43.8690  44.3257
    44.6662  44.7679  45.2826  46.4281  47.1703  48.6687  49.0919  50.5829
    51.1255  51.3802  52.6447  53.2583  53.6654  54.0710  54.6536  54.8685
    55.7749  56.0629  56.3004  56.8520  56.9300  57.0999  57.4014

          k = 0.4000 0.3333 0.0000 (  2652 PWs)   bands (ev):

   -89.1688 -89.1513 -44.8102 -44.8081 -44.8074 -44.8053 -44.7913 -44.7881
   -23.2165 -22.9959 -22.7985 -22.5040 -22.3729 -22.0985   2.4139   3.6750
     4.2469   4.8192   4.9729   5.0689   5.5363   5.5864   5.7596   5.9461
     6.0921   6.3086   6.3985   6.5549   6.6289   6.6359   6.8321   8.5244
    15.1659  15.1928  15.2057  15.2889  15.3059  15.3236  15.3537  15.3706
    15.3882  15.5700  29.2146  29.3899  33.8138  34.4867  34.8860  35.0315
    35.2269  35.7302  36.0378  36.3293  36.6850  36.7603  37.7775  38.1143
    38.4957  38.6820  38.8531  39.5494  40.1329  40.4370  40.5723  40.7055
    41.3368  41.4170  43.1199  43.3521  43.5436  43.9808  44.8841  44.9069
    45.2337  45.4754  45.6636  46.8790  47.2769  49.2709  50.2289  50.4590
    51.3562  51.6040  52.7157  53.1071  53.4104  53.4987  53.7264  54.2243
    54.7529  55.1229  55.4971  55.6540  56.1876  56.8559  57.2464

          k = 0.4000 0.3333 0.1429 (  2654 PWs)   bands (ev):

   -89.1668 -89.1573 -44.8105 -44.8098 -44.8088 -44.8039 -44.7908 -44.7907
   -23.1681 -22.9850 -22.8039 -22.5034 -22.3765 -22.1589   2.6619   3.6800
     4.2328   4.8990   4.9686   5.0711   5.3651   5.7576   5.7789   5.9747
     6.0886   6.2550   6.3872   6.5512   6.5703   6.6111   6.8422   8.1619
    15.1785  15.1940  15.2363  15.2739  15.3174  15.3328  15.3385  15.3534
    15.3702  15.5221  29.3395  29.5289  34.0399  34.5842  35.0039  35.1874
    35.5714  35.8150  35.9535  36.3477  36.7360  37.1780  37.6373  38.1215
    38.4510  38.7141  38.8641  39.4986  39.6676  40.0445  40.2192  40.6193
    41.5755  42.1325  42.9228  43.1585  43.5319  43.9218  44.2855  44.8577
    45.0422  45.3090  45.6856  46.6147  47.0429  48.6091  49.5396  50.9243
    51.0722  51.6831  52.8860  53.1675  53.7707  53.8695  53.9304  54.5269
    55.2075  55.6615  55.8957  56.1624  56.3744  57.0081  57.2287

          k = 0.4000 0.3333 0.2857 (  2651 PWs)   bands (ev):

   -89.1539 -89.1528 -44.8119 -44.8068 -44.8043 -44.7996 -44.7934 -44.7920
   -23.0427 -22.9469 -22.8177 -22.5020 -22.3867 -22.3177   3.3735   3.6950
     4.2137   4.9074   4.9704   5.1851   5.3028   5.8190   5.9336   5.9814
     6.0402   6.2025   6.3481   6.4613   6.5252   6.5403   6.8495   7.2181
    15.1859  15.2135  15.2497  15.2611  15.3021  15.3286  15.3430  15.3519
    15.3704  15.4088  29.6715  29.8677  34.5737  34.7773  35.1635  35.2214
    35.4087  36.0372  36.4702  36.5660  37.4303  37.6383  37.9811  38.0951
    38.3925  38.5391  39.0138  39.1446  39.3340  39.5616  40.0954  40.2257
    41.7992  42.3296  42.8188  43.1118  43.1944  43.7021  43.7575  44.3088
    44.7686  45.2557  45.6222  46.0358  46.1288  47.1848  48.3773  49.7567
    51.0925  51.4934  53.8385  54.3001  54.3636  54.8061  55.0965  55.2745
    55.5409  56.0188  56.2842  56.4310  56.9366  57.1542  57.5967

          k = 0.4000 0.3333 0.4286 (  2646 PWs)   bands (ev):

   -89.1454 -89.1398 -44.8081 -44.8043 -44.8019 -44.7975 -44.7947 -44.7904
   -22.9543 -22.8615 -22.7760 -22.5561 -22.4884 -22.3904   3.7017   4.1988
     4.4337   4.8824   4.8838   5.2859   5.4376   5.7601   5.8280   5.9511
     6.0132   6.1479   6.2607   6.3345   6.4399   6.4679   6.4844   6.8477
    15.1851  15.2011  15.2240  15.2591  15.2830  15.3420  15.3504  15.3517
    15.3637  15.3791  30.0395  30.1393  34.6108  34.7693  35.3385  35.4788
    35.5234  35.6897  36.8642  36.9313  37.6161  37.7925  37.8188  38.0449
    38.3997  39.0642  39.1311  39.3251  39.7583  39.8526  39.9965  40.2456
    41.7098  42.2618  42.6263  43.0191  43.2126  43.2599  43.5634  43.7579
    44.2920  44.3683  45.3641  45.4769  45.5700  46.7599  47.3395  48.4522
    51.2731  51.3201  54.2001  55.1347  55.3234  55.3384  55.5231  55.7020
    56.0691  56.4642  56.6126  56.9521  57.2709  57.5307  57.7633

          k = 0.4000-0.5000 0.0000 (  2650 PWs)   bands (ev):

   -89.1559 -89.1557 -44.8100 -44.8099 -44.8074 -44.8072 -44.7864 -44.7862
   -23.2009 -22.8977 -22.6774 -22.6565 -22.4659 -22.0987   2.4210   4.1842
     4.7659   4.9001   5.0757   5.2348   5.2549   5.5590   5.6037   5.6202
     5.8855   6.2381   6.2807   6.3635   6.6335   6.6565   6.6627   8.5150
    15.1474  15.1643  15.1651  15.2556  15.3137  15.3198  15.3737  15.3802
    15.3821  15.5817  29.4825  29.4892  33.5273  34.7918  34.9659  35.2802
    35.6070  36.0107  36.2438  36.3792  36.4645  36.7774  37.6541  38.3509
    38.4442  38.5094  39.7172  40.2052  40.2565  40.3548  40.6999  40.9062
    40.9911  41.7193  41.8679  42.9979  43.1098  43.5252  43.7381  44.3889
    45.0347  45.0571  45.6092  46.6857  47.5815  49.7549  49.7908  50.9651
    50.9797  51.1664  52.6003  53.1796  53.1982  53.2415  54.0303  54.8437
    54.8894  55.1136  55.9247  56.0731  57.0543  57.0690  57.2177

          k = 0.4000-0.5000 0.1429 (  2650 PWs)   bands (ev):

   -89.1545 -89.1522 -44.8078 -44.8078 -44.8058 -44.8058 -44.7895 -44.7895
   -23.1501 -22.8894 -22.6760 -22.6581 -22.4724 -22.1594   2.6684   4.1876
     4.7808   4.9259   5.0428   5.1838   5.2559   5.5504   5.6453   5.7188
     5.9282   6.2221   6.2684   6.3465   6.5901   6.6093   6.6345   8.1585
    15.1629  15.1664  15.1967  15.2550  15.3188  15.3252  15.3273  15.3757
    15.3790  15.5347  29.6284  29.6301  33.7623  34.7477  35.2464  35.5521
    35.6809  36.0488  36.2478  36.4961  36.6413  37.0299  37.6177  38.3251
    38.3591  38.5428  38.9835  39.5649  40.3153  40.6372  40.6751  40.6913
    41.6892  41.8922  42.0500  42.7845  42.9057  43.3056  43.7501  44.2811
    44.6767  44.8462  45.2601  46.4985  47.3330  48.9011  49.2990  50.7109
    51.2203  51.2977  52.3950  53.2275  53.2540  53.8707  54.5597  55.1420
    55.4774  56.0544  56.5866  56.6445  57.0011  57.2398  57.2660

          k = 0.4000-0.5000 0.2857 (  2640 PWs)   bands (ev):

   -89.1323 -89.1316 -44.8053 -44.8053 -44.7975 -44.7974 -44.7898 -44.7897
   -23.0093 -22.8669 -22.6726 -22.6633 -22.4864 -22.3211   3.3805   4.2004
     4.8099   4.8791   5.0326   5.0723   5.3936   5.5858   5.7671   5.8612
     6.0197   6.1461   6.2756   6.3065   6.4875   6.4921   6.5175   7.2180
    15.1830  15.2018  15.2249  15.2384  15.2735  15.3389  15.3451  15.3641
    15.3707  15.4176  30.0018  30.0027  34.3462  34.7242  35.2907  35.6491
    35.8126  35.8539  36.7400  36.7557  37.4699  37.4981  37.8411  38.0875
    38.1415  38.6986  38.8773  39.3351  39.9998  40.1465  40.4511  40.5650
    41.9461  42.1708  42.6789  42.7200  42.9068  43.0727  43.3806  43.7675
    44.2717  44.6283  44.8831  45.9034  46.1871  47.1248  48.1048  48.7461
    51.2256  51.2882  53.5909  54.7008  54.9352  55.2955  55.3380  55.6022
    56.1741  56.3559  56.6271  56.9124  57.2345  57.3132  57.5923

          k = 0.4000-0.5000 0.4286 (  2640 PWs)   bands (ev):

   -89.1290 -89.1290 -44.8034 -44.8033 -44.7968 -44.7966 -44.7919 -44.7919
   -22.8440 -22.8029 -22.6721 -22.6712 -22.5441 -22.4999   4.2114   4.4364
     4.8021   4.8107   5.0247   5.0250   5.4563   5.5680   5.8984   5.9454
     6.0487   6.0947   6.2264   6.2356   6.3367   6.3463   6.3509   6.3953
    15.2013  15.2014  15.2267  15.2290  15.2772  15.3049  15.3589  15.3601
    15.3668  15.3673  30.3695  30.3712  34.7889  34.8193  35.2769  35.3255
    35.4542  35.5156  37.2887  37.2974  37.6113  37.6787  37.7185  37.8139
    39.1284  39.1724  39.5203  39.5744  39.6199  39.9614  40.5755  40.6504
    41.6257  41.7323  42.9050  42.9846  43.0460  43.0773  43.4054  43.5317
    43.9452  44.4236  44.6677  44.8443  45.3591  45.7365  46.6733  46.7972
    51.4844  51.4860  54.9824  55.4398  55.8320  55.8812  56.2857  56.3027
    56.3744  56.4493  56.7527  56.9360  57.4449  57.6904  57.8903

     the Fermi energy is    49.8400 ev

!    total energy              =   -2107.83600624 Ry
     Harris-Foulkes estimate   =   -2107.83602371 Ry
     estimated scf accuracy    <       0.00002001 Ry

     The total energy is the sum of the following terms:

     one-electron contribution =      15.97556183 Ry
     hartree contribution      =     206.80801648 Ry
     xc contribution           =    -197.99188315 Ry
     ewald contribution        =   -2132.48887725 Ry
     smearing contrib. (-TS)   =      -0.13882416 Ry

     convergence has been achieved in   8 iterations

     Forces acting on atoms (Ry/au):

     atom    1 type  1   force =     0.00000000    0.00000000    0.00000000
     atom    2 type  1   force =     0.00000000    0.00000000    0.00000000
     atom    3 type  1   force =     0.00000000    0.00000000    0.00000000
     atom    4 type  1   force =     0.00000000    0.00000000    0.00000000
     atom    5 type  1   force =     0.00000000    0.00000000    0.00000000
     atom    6 type  1   force =     0.00000000    0.00000000    0.00000000
     atom    7 type  2   force =     0.00000000    0.00000000    0.00000000
     atom    8 type  2   force =     0.00000000    0.00000000    0.00000000

     Total force =     0.000000     Total SCF correction =     0.000000


     entering subroutine stress ...

          total   stress  (Ry/bohr**3)                   (kbar)     P= 5181.00
   0.03521976   0.00000000   0.00000000       5181.00      0.00      0.00
   0.00000000   0.03521976   0.00000000          0.00   5181.00      0.00
   0.00000000   0.00000000   0.03521976          0.00      0.00   5181.00


     BFGS Geometry Optimization

     number of scf cycles    =   1
     number of bfgs steps    =   0

     enthalpy new            =   -2107.8360062406 Ry

     new trust radius        =       0.5000000000 bohr
     new conv_thr            =       0.0001000000 Ry

     new unit-cell volume =    828.02266 a.u.^3 (   122.70030 Ang^3 )

CELL_PARAMETERS (alat=  8.53457320)
   1.100269143   0.000000000   0.000000000
   0.000000000   1.100269143   0.000000000
   0.000000000   0.000000000   1.100269143

ATOMIC_POSITIONS (crystal)
Cr       0.000000000   0.500000000   0.250000000
Cr       0.000000000   0.500000000   0.750000000
Cr       0.500000000   0.750000000   0.000000000
Cr       0.500000000   0.250000000   0.000000000
Cr       0.750000000   0.000000000   0.500000000
Cr       0.250000000   0.000000000   0.500000000
Si       0.500000000   0.500000000   0.500000000
Si       0.000000000   0.000000000   0.000000000



     Writing output data file Prototype-La-cP8-Cr3Si.save
     NEW-OLD atomic charge density approx. for the potential
     NEW k-points:
        k(    1) = (   0.0000000   0.0000000   0.0000000), wk =   0.0095238
        k(    2) = (   0.0000000   0.0000000   0.1298384), wk =   0.0190476
        k(    3) = (   0.0000000   0.0000000   0.2596767), wk =   0.0190476
        k(    4) = (   0.0000000   0.0000000   0.3895151), wk =   0.0190476
        k(    5) = (   0.0000000   0.1514781   0.0000000), wk =   0.0190476
        k(    6) = (   0.0000000   0.1514781   0.1298384), wk =   0.0380952
        k(    7) = (   0.0000000   0.1514781   0.2596767), wk =   0.0380952
        k(    8) = (   0.0000000   0.1514781   0.3895151), wk =   0.0380952
        k(    9) = (   0.0000000   0.3029562   0.0000000), wk =   0.0190476
        k(   10) = (   0.0000000   0.3029562   0.1298384), wk =   0.0380952
        k(   11) = (   0.0000000   0.3029562   0.2596767), wk =   0.0380952
        k(   12) = (   0.0000000   0.3029562   0.3895151), wk =   0.0380952
        k(   13) = (   0.0000000  -0.4544343   0.0000000), wk =   0.0095238
        k(   14) = (   0.0000000  -0.4544343   0.1298384), wk =   0.0190476
        k(   15) = (   0.0000000  -0.4544343   0.2596767), wk =   0.0190476
        k(   16) = (   0.0000000  -0.4544343   0.3895151), wk =   0.0190476
        k(   17) = (   0.1817737   0.0000000   0.0000000), wk =   0.0190476
        k(   18) = (   0.1817737   0.0000000   0.1298384), wk =   0.0380952
        k(   19) = (   0.1817737   0.0000000   0.2596767), wk =   0.0380952
        k(   20) = (   0.1817737   0.0000000   0.3895151), wk =   0.0380952
        k(   21) = (   0.1817737   0.1514781   0.0000000), wk =   0.0380952
        k(   22) = (   0.1817737   0.1514781   0.1298384), wk =   0.0761905
        k(   23) = (   0.1817737   0.1514781   0.2596767), wk =   0.0761905
        k(   24) = (   0.1817737   0.1514781   0.3895151), wk =   0.0761905
        k(   25) = (   0.1817737   0.3029562   0.0000000), wk =   0.0380952
        k(   26) = (   0.1817737   0.3029562   0.1298384), wk =   0.0761905
        k(   27) = (   0.1817737   0.3029562   0.2596767), wk =   0.0761905
        k(   28) = (   0.1817737   0.3029562   0.3895151), wk =   0.0761905
        k(   29) = (   0.1817737  -0.4544343   0.0000000), wk =   0.0190476
        k(   30) = (   0.1817737  -0.4544343   0.1298384), wk =   0.0380952
        k(   31) = (   0.1817737  -0.4544343   0.2596767), wk =   0.0380952
        k(   32) = (   0.1817737  -0.4544343   0.3895151), wk =   0.0380952
        k(   33) = (   0.3635474   0.0000000   0.0000000), wk =   0.0190476
        k(   34) = (   0.3635474   0.0000000   0.1298384), wk =   0.0380952
        k(   35) = (   0.3635474   0.0000000   0.2596767), wk =   0.0380952
        k(   36) = (   0.3635474   0.0000000   0.3895151), wk =   0.0380952
        k(   37) = (   0.3635474   0.1514781   0.0000000), wk =   0.0380952
        k(   38) = (   0.3635474   0.1514781   0.1298384), wk =   0.0761905
        k(   39) = (   0.3635474   0.1514781   0.2596767), wk =   0.0761905
        k(   40) = (   0.3635474   0.1514781   0.3895151), wk =   0.0761905
        k(   41) = (   0.3635474   0.3029562   0.0000000), wk =   0.0380952
        k(   42) = (   0.3635474   0.3029562   0.1298384), wk =   0.0761905
        k(   43) = (   0.3635474   0.3029562   0.2596767), wk =   0.0761905
        k(   44) = (   0.3635474   0.3029562   0.3895151), wk =   0.0761905
        k(   45) = (   0.3635474  -0.4544343   0.0000000), wk =   0.0190476
        k(   46) = (   0.3635474  -0.4544343   0.1298384), wk =   0.0380952
        k(   47) = (   0.3635474  -0.4544343   0.2596767), wk =   0.0380952
        k(   48) = (   0.3635474  -0.4544343   0.3895151), wk =   0.0380952

     total cpu time spent up to now is      330.7 secs

     Self-consistent Calculation

     iteration #  1     ecut=    40.00 Ry     beta=0.70
     CG style diagonalization
     c_bands:  2 eigenvalues not converged
     c_bands:  2 eigenvalues not converged
     c_bands:  4 eigenvalues not converged
     c_bands:  3 eigenvalues not converged
     c_bands:  1 eigenvalues not converged
     c_bands:  2 eigenvalues not converged
     c_bands:  1 eigenvalues not converged
     c_bands:  1 eigenvalues not converged
     c_bands:  4 eigenvalues not converged
     c_bands:  2 eigenvalues not converged
     c_bands:  1 eigenvalues not converged
     c_bands:  2 eigenvalues not converged
     c_bands:  1 eigenvalues not converged
     c_bands:  2 eigenvalues not converged
     c_bands:  2 eigenvalues not converged
     c_bands:  3 eigenvalues not converged
     c_bands:  3 eigenvalues not converged
     c_bands:  3 eigenvalues not converged
     c_bands:  3 eigenvalues not converged
     c_bands:  2 eigenvalues not converged
     c_bands:  1 eigenvalues not converged
     c_bands:  2 eigenvalues not converged
     c_bands:  2 eigenvalues not converged
     c_bands:  2 eigenvalues not converged
     c_bands:  2 eigenvalues not converged
     c_bands:  2 eigenvalues not converged
     c_bands:  1 eigenvalues not converged
     c_bands:  3 eigenvalues not converged
     c_bands:  2 eigenvalues not converged
     c_bands:  3 eigenvalues not converged
     c_bands:  2 eigenvalues not converged
     c_bands:  1 eigenvalues not converged
     c_bands:  4 eigenvalues not converged
     c_bands:  3 eigenvalues not converged
     ethr =  1.00E-06,  avg # of iterations = 22.2

     total cpu time spent up to now is      445.6 secs

     total energy              =   -2099.12380223 Ry
     Harris-Foulkes estimate   =   -2127.90942087 Ry
     estimated scf accuracy    <      36.77765446 Ry

     iteration #  2     ecut=    40.00 Ry     beta=0.70
     CG style diagonalization
     ethr =  1.00E-02,  avg # of iterations =  4.0

     total cpu time spent up to now is      466.9 secs

     total energy              =   -2109.57343703 Ry
     Harris-Foulkes estimate   =   -2113.28602620 Ry
     estimated scf accuracy    <       5.70319396 Ry

     iteration #  3     ecut=    40.00 Ry     beta=0.70
     CG style diagonalization
     ethr =  3.61E-03,  avg # of iterations =  3.6

     total cpu time spent up to now is      485.9 secs

     total energy              =   -2111.04673770 Ry
     Harris-Foulkes estimate   =   -2111.30864435 Ry
     estimated scf accuracy    <       0.44963727 Ry

     iteration #  4     ecut=    40.00 Ry     beta=0.70
     CG style diagonalization
     ethr =  2.85E-04,  avg # of iterations =  3.7

     total cpu time spent up to now is      505.3 secs

     total energy              =   -2111.16720597 Ry
     Harris-Foulkes estimate   =   -2111.16864052 Ry
     estimated scf accuracy    <       0.00262291 Ry

     iteration #  5     ecut=    40.00 Ry     beta=0.70
     CG style diagonalization
     c_bands:  2 eigenvalues not converged
     c_bands:  2 eigenvalues not converged
     c_bands:  2 eigenvalues not converged
     c_bands:  1 eigenvalues not converged
     c_bands:  3 eigenvalues not converged
     c_bands:  3 eigenvalues not converged
     c_bands:  2 eigenvalues not converged
     c_bands:  1 eigenvalues not converged
     c_bands:  1 eigenvalues not converged
     c_bands:  2 eigenvalues not converged
     c_bands:  2 eigenvalues not converged
     c_bands:  1 eigenvalues not converged
     c_bands:  1 eigenvalues not converged
     c_bands:  2 eigenvalues not converged
     c_bands:  1 eigenvalues not converged
     c_bands:  1 eigenvalues not converged
     c_bands:  1 eigenvalues not converged
     c_bands:  3 eigenvalues not converged
     c_bands:  3 eigenvalues not converged
     c_bands:  1 eigenvalues not converged
     c_bands:  1 eigenvalues not converged
     c_bands:  2 eigenvalues not converged
     c_bands:  3 eigenvalues not converged
     c_bands:  1 eigenvalues not converged
     c_bands:  2 eigenvalues not converged
     c_bands:  3 eigenvalues not converged
     c_bands:  1 eigenvalues not converged
     c_bands:  3 eigenvalues not converged
     c_bands:  1 eigenvalues not converged
     c_bands:  2 eigenvalues not converged
     c_bands:  1 eigenvalues not converged
     c_bands:  2 eigenvalues not converged
     c_bands:  4 eigenvalues not converged
     c_bands:  1 eigenvalues not converged
     ethr =  1.66E-06,  avg # of iterations =  5.5

     total cpu time spent up to now is      535.0 secs

     total energy              =   -2111.16982655 Ry
     Harris-Foulkes estimate   =   -2111.17083837 Ry
     estimated scf accuracy    <       0.00191272 Ry

     iteration #  6     ecut=    40.00 Ry     beta=0.70
     CG style diagonalization
     c_bands:  1 eigenvalues not converged
     c_bands:  1 eigenvalues not converged
     c_bands:  1 eigenvalues not converged
     ethr =  1.21E-06,  avg # of iterations =  3.5

     total cpu time spent up to now is      553.5 secs

     End of self-consistent calculation

          k = 0.0000 0.0000 0.0000 (  2601 PWs)   bands (ev):

  -100.4394-100.2546 -57.7574 -57.7574 -57.7574 -57.7537 -57.7537 -57.7537
   -34.0668 -34.0439 -34.0439 -33.5926 -33.5926 -33.5926  -6.6918  -6.6918
    -6.4710  -5.4536  -5.4536  -5.4536  -4.8376  -4.8376  -4.8376  -4.8275
    -4.8275  -4.8275  -4.6496  -4.6496  -4.6496  -3.7295  -3.7295  -3.7295
     2.9054   2.9054   2.9977   2.9977   3.0376   3.0376   3.0376   3.0663
     3.0663   3.0663  18.0717  18.9216  24.3561  24.3561  24.3561  24.6637
    24.6637  24.6637  25.4714  25.4714  25.5410  26.8307  27.8840  27.8840
    27.8840  28.5203  28.5203  28.5203  28.8058  28.8058  30.9012  30.9012
    30.9012  32.7649  32.7649  33.0157  33.2535  33.2535  33.2535  33.2686
    33.2686  33.2686  34.4508  35.3383  35.3383  35.3383  35.3820  35.3820
    36.5478  36.5478  36.5478  40.9077  40.9077  40.9077  41.4634  41.4635
    41.7512  41.7512  41.7512  42.2000  42.6164  42.6164  42.6164

          k = 0.0000 0.0000 0.1298 (  2657 PWs)   bands (ev):

  -100.6032-100.4617 -57.7687 -57.7687 -57.7660 -57.7587 -57.7587 -57.7584
   -34.0736 -34.0536 -34.0217 -33.6693 -33.6435 -33.6435  -6.7177  -6.6708
    -6.4468  -5.4550  -5.4550  -5.4243  -4.9260  -4.9260  -4.8681  -4.8442
    -4.7847  -4.7847  -4.6983  -4.6983  -4.6960  -3.8926  -3.7443  -3.7443
     2.9002   2.9092   2.9575   2.9599   3.0072   3.0072   3.0245   3.0245
     3.0253   3.0306  18.1472  18.9045  24.3823  24.4518  24.4518  24.6541
    24.7697  24.7697  25.4595  25.5961  25.9140  26.9372  27.3121  27.5797
    27.5797  28.4837  28.7661  28.7661  28.8635  28.8866  30.8596  30.8794
    30.8794  32.4190  32.5220  32.9824  32.9824  33.1340  33.1340  33.2230
    33.4306  33.5254  33.8884  34.5258  34.8726  35.1881  35.1881  36.6175
    36.6175  36.6213  37.2220  40.4575  40.9747  40.9747  41.0966  41.2482
    41.5619  41.5619  42.3104  42.3034  42.3034  42.4279  42.7187

          k = 0.0000 0.0000 0.2597 (  2677 PWs)   bands (ev):

  -100.6373-100.5610 -57.7693 -57.7693 -57.7684 -57.7671 -57.7614 -57.7614
   -34.0887 -34.0631 -33.9822 -33.7261 -33.6528 -33.6528  -6.7033  -6.6387
    -6.1427  -5.4481  -5.4481  -5.3441  -4.9632  -4.9629  -4.9629  -4.8444
    -4.7485  -4.7485  -4.7279  -4.7218  -4.7218  -4.3742  -3.7553  -3.7553
     2.8946   2.9238   2.9510   2.9555   2.9700   2.9700   3.0102   3.0102
     3.0184   3.0280  18.4050  18.8676  24.0218  24.6990  24.6990  25.0032
    25.0032  25.1782  25.6132  25.6618  26.3504  27.0303  27.2331  27.3192
    27.3192  28.3509  28.7314  28.7314  28.8764  28.9110  30.3965  30.8804
    30.8804  31.9818  32.1424  32.5347  32.5347  32.9004  33.0442  33.0442
    33.1233  33.6571  33.7723  34.3080  34.7611  34.7611  34.9163  36.6171
    36.6171  37.6821  37.8979  39.4330  40.7966  40.7966  41.4830  41.5987
    41.6176  41.9346  41.9346  42.4416  42.4415  42.6358  43.0935

          k = 0.0000 0.0000 0.3895 (  2658 PWs)   bands (ev):

  -100.5382-100.5342 -57.7642 -57.7642 -57.7637 -57.7633 -57.7633 -57.7606
   -34.0754 -34.0487 -33.8947 -33.8039 -33.6456 -33.6456  -6.6809  -6.6542
    -5.6014  -5.4442  -5.4442  -5.2051  -5.0886  -4.9686  -4.9686  -4.9587
    -4.8045  -4.7613  -4.7485  -4.7485  -4.6812  -4.6812  -3.7493  -3.7493
     2.9268   2.9307   2.9520   2.9520   2.9687   2.9786   3.0157   3.0157
     3.0212   3.0279  18.6856  18.8188  24.0631  24.6329  24.9794  24.9794
    25.1210  25.1210  25.6843  25.7347  26.9595  27.4408  27.4408  27.6493
    28.0627  28.1096  28.2243  28.2243  28.6372  28.8685  29.9289  30.8890
    30.8890  31.3208  31.7696  31.8491  32.2140  32.2140  33.2043  33.4263
    33.4263  33.6591  33.8059  33.8561  34.2284  34.2284  36.4300  36.4300
    36.7026  37.8454  37.8807  39.0405  40.4754  40.6894  40.6894  41.3891
    42.2913  42.3417  42.3417  42.7469  42.7473  42.7895  43.8561

          k = 0.0000 0.1515 0.0000 (  2653 PWs)   bands (ev):

  -100.5793-100.4617 -57.7677 -57.7677 -57.7640 -57.7587 -57.7587 -57.7585
   -34.0695 -34.0474 -34.0136 -33.6769 -33.6441 -33.6441  -6.7155  -6.6578
    -6.4182  -5.4501  -5.4501  -5.4039  -4.9329  -4.9329  -4.8650  -4.8564
    -4.7740  -4.7740  -4.7012  -4.7012  -4.6998  -3.9447  -3.7424  -3.7424
     2.9016   2.9115   2.9597   2.9597   3.0079   3.0079   3.0247   3.0258
     3.0258   3.0310  18.1853  18.9010  24.3114  24.4850  24.4850  24.7559
    24.8049  24.8049  25.4570  25.6115  26.0594  26.9746  27.1491  27.5187
    27.5187  28.4702  28.8011  28.8011  28.8757  28.8981  30.8289  30.8760
    30.8760  32.3390  32.4593  32.9059  32.9059  33.1006  33.1006  33.2783
    33.4718  33.5769  33.7490  34.4149  34.8054  35.1332  35.1332  36.6320
    36.6320  36.8713  37.3350  40.2174  40.9820  40.9820  41.1647  41.2641
    41.5526  41.5526  42.3278  42.3280  42.3537  42.5819  42.7548

          k = 0.0000 0.1515 0.1298 (  2662 PWs)   bands (ev):

  -100.6291-100.4743 -57.7699 -57.7687 -57.7662 -57.7641 -57.7579 -57.7562
   -34.0868 -34.0322 -34.0131 -33.6755 -33.6697 -33.6468  -6.6936  -6.5826
    -6.3993  -5.4418  -5.4230  -5.4066  -4.9721  -4.9672  -4.8510  -4.8339
    -4.8009  -4.7508  -4.7392  -4.7138  -4.6748  -3.9655  -3.9062  -3.7449
     2.9056   2.9184   2.9565   2.9591   2.9964   2.9990   3.0022   3.0123
     3.0250   3.0299  18.2818  18.9007  24.3755  24.5744  24.5863  24.5996
    24.9193  25.0104  25.5571  25.9331  26.1077  26.8905  27.0655  27.3595
    27.3702  28.4575  28.5569  28.8935  28.9064  29.1395  30.6338  30.7683
    30.9427  32.0134  32.3386  32.6925  32.8575  32.8623  33.1859  33.3879
    33.5147  33.5312  33.5539  34.1534  34.3385  35.1322  35.2861  36.0678
    36.6519  37.7405  37.9899  40.2563  40.6754  40.7266  40.9371  41.1267
    41.3204  41.9669  42.0975  42.2386  42.3321  42.8942  43.1902

          k = 0.0000 0.1515 0.2597 (  2666 PWs)   bands (ev):

  -100.5935-100.5380 -57.7674 -57.7672 -57.7666 -57.7646 -57.7614 -57.7590
   -34.0802 -34.0346 -33.9683 -33.7285 -33.6788 -33.6495  -6.6817  -6.4996
    -6.1457  -5.4250  -5.4060  -5.3404  -5.0305  -4.9996  -4.8827  -4.8504
    -4.7743  -4.7542  -4.7319  -4.7165  -4.6753  -4.3521  -3.9676  -3.7479
     2.9108   2.9314   2.9550   2.9583   2.9659   2.9810   3.0077   3.0080
     3.0146   3.0226  18.5335  18.8983  24.1549  24.7387  24.7542  24.8494
    25.1764  25.4605  25.7051  26.0987  26.3652  26.9997  27.1421  27.1435
    27.3544  28.3828  28.4077  28.8004  28.8861  29.2476  30.1646  30.5804
    30.9032  31.4974  32.1221  32.2050  32.4929  32.5742  32.8753  33.0527
    33.2036  33.4707  33.7853  33.7963  34.3748  34.9894  35.2021  36.4062
    36.5651  38.2874  38.8796  39.5022  40.2355  40.2359  40.8625  41.4259
    41.4264  42.1805  42.4016  42.5204  42.8563  42.9231  43.1614

          k = 0.0000 0.1515 0.3895 (  2658 PWs)   bands (ev):

  -100.5574-100.5189 -57.7660 -57.7653 -57.7652 -57.7623 -57.7619 -57.7585
   -34.0562 -34.0390 -33.8934 -33.8018 -33.6731 -33.6553  -6.6786  -6.4978
    -5.6128  -5.4117  -5.3922  -5.2184  -5.0992  -5.0069  -4.9723  -4.9198
    -4.8752  -4.7654  -4.7482  -4.7095  -4.6908  -4.6818  -3.9684  -3.7398
     2.9254   2.9300   2.9488   2.9590   2.9749   2.9756   3.0068   3.0070
     3.0149   3.0240  18.7788  18.8913  24.1758  24.6053  24.9549  25.1514
    25.2511  25.3088  25.7171  26.1600  26.9451  27.1825  27.2586  27.6530
    27.9530  28.1574  28.3272  28.3783  28.7198  29.2673  29.8318  30.4484
    30.8528  31.1875  31.2827  31.5552  32.1448  32.2198  32.8224  32.9704
    32.9891  33.4927  33.5857  33.9136  34.0824  34.7881  36.3052  36.4774
    36.8268  38.2175  38.5406  38.9903  40.0260  40.4372  40.5401  41.4205
    42.0491  42.3673  42.6439  43.0320  43.1189  43.2324  43.4369

          k = 0.0000 0.3030 0.0000 (  2677 PWs)   bands (ev):

  -100.6372-100.5589 -57.7689 -57.7689 -57.7677 -57.7638 -57.7638 -57.7636
[...]
    34.6749  34.7203  35.1980  35.2457  35.8817  35.9529  36.1098

          k = 0.1704-0.4261 0.3652 (  4294 PWs)   bands (ev):

  -108.8712-108.8711 -64.3382 -64.3381 -64.3370 -64.3367 -64.3343 -64.3342
   -40.4149 -40.3630 -40.3380 -40.3364 -40.3146 -40.2599 -12.2334 -11.7754
   -11.6204 -11.5901 -11.5358 -11.5205 -11.5007 -11.4258 -11.4183 -11.3881
   -11.3754 -11.3164 -11.2994 -11.2994 -11.2379 -11.2365 -11.2316 -10.8767
    -3.5547  -3.5545  -3.5498  -3.5467  -3.5462  -3.5413  -3.5406  -3.5402
    -3.5365  -3.5294  13.1140  13.1142  19.0139  19.5088  20.0399  20.0986
    20.2635  20.3024  21.0567  21.3523  21.3551  21.6696  22.0172  22.3497
    22.6291  22.8461  22.9058  22.9304  23.2472  23.2948  23.4184  23.4616
    23.7350  23.9035  24.5017  24.5191  24.8631  24.9465  25.0483  25.4737
    25.6898  25.8606  25.9610  26.3858  26.7786  27.0449  27.2562  28.0803
    29.6417  29.6612  32.2317  33.0110  33.0230  33.2296  33.4364  34.1026
    34.1944  34.9225  35.3625  35.4966  35.8234  36.0566  36.3588

          k = 0.3409 0.0000 0.0000 (  4284 PWs)   bands (ev):

  -108.8616-108.8562 -64.3396 -64.3372 -64.3329 -64.3329 -64.3312 -64.3312
   -40.4401 -40.4300 -40.3624 -40.3075 -40.2401 -40.2401 -12.3889 -12.3651
   -11.8290 -11.6050 -11.6050 -11.5157 -11.4289 -11.3721 -11.3721 -11.3088
   -11.2934 -11.2676 -11.2676 -11.2606 -11.2343 -11.2343 -10.7059 -10.7059
    -3.5607  -3.5551  -3.5501  -3.5466  -3.5435  -3.5435  -3.5279  -3.5266
    -3.5264  -3.5263  12.7596  12.9460  18.8796  19.3285  19.6765  19.6765
    19.9221  19.9222  20.5247  20.5484  21.3124  21.9164  21.9164  22.1929
    22.2095  22.5318  22.5318  22.5769  22.8413  23.0685  23.7296  24.6632
    24.6632  24.9910  25.3121  25.3895  25.6080  25.6080  25.8528  26.2175
    26.4295  26.4295  26.7011  26.7442  27.2181  27.2181  28.4856  28.7441
    28.7441  29.9517  29.9882  31.3924  32.3450  32.7863  32.7863  33.8765
    34.4936  34.4936  34.5264  34.5842  35.7589  35.7926  35.8040

          k = 0.3409 0.0000 0.1217 (  4279 PWs)   bands (ev):

  -108.8539-108.8532 -64.3395 -64.3385 -64.3336 -64.3319 -64.3283 -64.3272
   -40.4370 -40.4229 -40.3639 -40.3065 -40.2492 -40.2397 -12.3748 -12.3009
   -11.8281 -11.5968 -11.5946 -11.5150 -11.4369 -11.3859 -11.3613 -11.3148
   -11.3099 -11.2709 -11.2650 -11.2414 -11.2374 -11.2299 -10.7948 -10.7050
    -3.5594  -3.5544  -3.5500  -3.5465  -3.5440  -3.5430  -3.5299  -3.5298
    -3.5279  -3.5249  12.8072  12.9730  18.9298  19.2963  19.6411  19.7749
    20.0011  20.0286  20.5396  20.7603  21.3491  21.7032  21.8319  22.1527
    22.2321  22.4973  22.6026  22.6811  22.8911  23.2645  23.7070  24.4251
    24.6010  24.9522  25.0016  25.2481  25.5302  25.6239  25.8180  26.1061
    26.1881  26.2150  26.6001  26.9151  26.9594  27.4366  28.4337  28.6590
    28.7746  30.2522  30.6442  30.9826  32.3775  32.3876  32.8297  33.5426
    34.4480  34.6907  34.7323  35.0322  35.4691  35.7362  35.8992

          k = 0.3409 0.0000 0.2435 (  4292 PWs)   bands (ev):

  -108.8724-108.8668 -64.3411 -64.3401 -64.3374 -64.3360 -64.3322 -64.3291
   -40.4341 -40.4018 -40.3651 -40.3073 -40.2754 -40.2416 -12.3793 -12.0879
   -11.8322 -11.5709 -11.5634 -11.5228 -11.4372 -11.4151 -11.3593 -11.3518
   -11.3220 -11.2850 -11.2617 -11.2405 -11.2292 -11.2197 -11.0430 -10.7044
    -3.5579  -3.5548  -3.5485  -3.5470  -3.5465  -3.5417  -3.5368  -3.5364
    -3.5301  -3.5243  12.9128  13.0222  18.9366  19.2178  19.6822  20.0300
    20.1974  20.2595  20.5489  21.2438  21.3969  21.4894  21.6668  22.0840
    22.2706  22.7688  22.8235  22.8482  22.9998  23.3345  23.5666  24.0107
    24.3009  24.4882  24.7677  24.8859  25.2949  25.4279  25.6088  25.7923
    26.1589  26.2630  26.3493  26.3752  27.0691  27.8358  28.1434  28.4768
    28.8276  29.9679  31.2023  31.7551  31.8068  32.5398  33.0340  33.7342
    34.4821  34.8459  35.0840  35.2927  35.3894  35.8401  35.9640

          k = 0.3409 0.0000 0.3652 (  4294 PWs)   bands (ev):

  -108.8720-108.8714 -64.3423 -64.3411 -64.3377 -64.3356 -64.3324 -64.3291
   -40.4333 -40.3747 -40.3544 -40.3183 -40.3047 -40.2414 -12.3787 -11.8489
   -11.7660 -11.5432 -11.5369 -11.5298 -11.4285 -11.4239 -11.4057 -11.4002
   -11.3589 -11.3025 -11.2929 -11.2749 -11.2226 -11.2200 -11.2139 -10.7068
    -3.5577  -3.5562  -3.5506  -3.5469  -3.5465  -3.5411  -3.5398  -3.5387
    -3.5314  -3.5236  13.0172  13.0525  18.7986  19.2385  19.8758  20.2426
    20.2955  20.3757  20.6373  21.1428  21.2652  21.5197  22.0235  22.1714
    22.6619  22.9278  22.9747  23.0687  23.2433  23.4164  23.4653  23.6689
    23.8346  24.1040  24.3845  24.5292  24.9906  25.0477  25.1918  25.6949
    25.9563  26.1347  26.2356  26.5328  27.1644  28.0979  28.1195  28.3117
    28.5403  29.4902  31.5135  31.8137  32.3059  33.1606  33.6610  34.0721
    34.5976  34.7988  34.8118  35.1146  35.3966  35.4756  36.0934

          k = 0.3409 0.1420 0.0000 (  4284 PWs)   bands (ev):

  -108.8628-108.8568 -64.3396 -64.3389 -64.3343 -64.3321 -64.3316 -64.3287
   -40.4371 -40.4204 -40.3647 -40.3063 -40.2530 -40.2400 -12.3774 -12.2756
   -11.8275 -11.5930 -11.5918 -11.5160 -11.4382 -11.3939 -11.3599 -11.3179
   -11.3168 -11.2718 -11.2607 -11.2450 -11.2368 -11.2266 -10.8258 -10.7057
    -3.5589  -3.5548  -3.5499  -3.5463  -3.5445  -3.5430  -3.5313  -3.5309
    -3.5288  -3.5248  12.8220  12.9789  18.9420  19.2823  19.6342  19.8089
    20.0278  20.0669  20.5405  20.8426  21.3550  21.6407  21.8066  22.1416
    22.2229  22.5408  22.6258  22.7093  22.8996  23.2960  23.6934  24.3595
    24.5828  24.9176  24.9330  25.1497  25.5476  25.6151  25.7813  26.0548
    26.1637  26.1905  26.5646  26.8704  26.9454  27.5029  28.3916  28.6319
    28.7991  30.3372  30.7478  30.9625  32.2730  32.3933  32.8161  33.5381
    34.4473  34.7605  34.7637  35.1551  35.4416  35.7156  35.9415

          k = 0.3409 0.1420 0.1217 (  4292 PWs)   bands (ev):

  -108.8767-108.8633 -64.3414 -64.3379 -64.3358 -64.3346 -64.3333 -64.3324
   -40.4298 -40.4186 -40.3650 -40.3077 -40.2537 -40.2501 -12.3065 -12.2731
   -11.8319 -11.5855 -11.5841 -11.5138 -11.4585 -11.3771 -11.3689 -11.3189
   -11.3131 -11.2990 -11.2446 -11.2433 -11.2378 -11.2321 -10.8280 -10.7969
    -3.5578  -3.5543  -3.5507  -3.5472  -3.5438  -3.5434  -3.5330  -3.5319
    -3.5297  -3.5283  12.8628  13.0045  19.0156  19.3300  19.6801  19.7814
    20.0213  20.1822  20.7586  20.8407  21.4000  21.5644  21.7671  22.1540
    22.2230  22.4850  22.6284  22.7592  22.9734  23.3363  23.6295  24.0799
    24.4630  24.8793  24.9923  25.2247  25.4109  25.4484  25.8117  25.9690
    25.9909  26.1025  26.6178  26.7158  26.9015  27.0624  28.3279  28.7534
    28.9434  30.3870  30.8472  31.1220  32.4705  32.5900  32.9364  33.1965
    34.2066  34.6322  35.1599  35.1842  35.5941  35.7244  36.3543

          k = 0.3409 0.1420 0.2435 (  4294 PWs)   bands (ev):

  -108.8788-108.8665 -64.3412 -64.3399 -64.3386 -64.3341 -64.3326 -64.3318
   -40.4223 -40.3993 -40.3652 -40.3083 -40.2773 -40.2543 -12.2763 -12.0893
   -11.8356 -11.5636 -11.5557 -11.5151 -11.4728 -11.3790 -11.3721 -11.3383
   -11.3201 -11.2971 -11.2623 -11.2393 -11.2367 -11.2277 -11.0390 -10.8281
    -3.5559  -3.5541  -3.5498  -3.5472  -3.5451  -3.5421  -3.5382  -3.5354
    -3.5345  -3.5282  12.9686  13.0574  19.0878  19.3559  19.7458  19.9390
    20.0984  20.3506  20.8382  21.3166  21.4019  21.5377  21.7548  22.0824
    22.2621  22.6289  22.7555  22.8951  23.0167  23.1638  23.4409  23.7252
    24.2901  24.6999  24.8033  24.9552  25.2016  25.4225  25.5363  25.6352
    25.9445  26.0756  26.2722  26.3915  26.7760  27.0886  27.7765  28.7857
    29.2330  29.7294  31.6098  31.9745  32.5796  32.7638  32.9257  33.6397
    34.3756  34.4276  35.3629  35.5840  35.7330  35.7978  36.0216

          k = 0.3409 0.1420 0.3652 (  4299 PWs)   bands (ev):

  -108.8818-108.8743 -64.3413 -64.3412 -64.3392 -64.3361 -64.3339 -64.3331
   -40.4211 -40.3731 -40.3557 -40.3181 -40.3063 -40.2545 -12.2768 -11.8487
   -11.7678 -11.5405 -11.5363 -11.5241 -11.4559 -11.4061 -11.3952 -11.3837
   -11.3494 -11.3091 -11.2915 -11.2767 -11.2333 -11.2323 -11.2266 -10.8275
    -3.5556  -3.5552  -3.5494  -3.5470  -3.5467  -3.5420  -3.5405  -3.5393
    -3.5353  -3.5278  13.0627  13.0918  18.9807  19.4139  19.9322  20.1033
    20.2462  20.3353  20.9036  21.2906  21.3723  21.6838  21.9965  22.1866
    22.6123  22.7661  22.8916  22.9393  23.0650  23.2756  23.3775  23.4718
    23.9909  24.2842  24.4791  24.6553  24.8729  25.1017  25.1730  25.6261
    25.7354  25.9310  26.1030  26.3507  26.8870  27.2507  27.4539  28.5033
    29.3566  29.4386  32.0496  32.5893  32.6686  33.1968  33.3081  34.0949
    34.3878  34.5779  35.0279  35.4326  35.8271  36.0610  36.2920

          k = 0.3409 0.2841 0.0000 (  4294 PWs)   bands (ev):

  -108.8721-108.8718 -64.3415 -64.3400 -64.3384 -64.3378 -64.3310 -64.3299
   -40.4342 -40.3903 -40.3642 -40.3082 -40.2883 -40.2412 -12.3780 -11.9947
   -11.8322 -11.5616 -11.5507 -11.5273 -11.4312 -11.4216 -11.3770 -11.3525
   -11.3273 -11.2924 -11.2716 -11.2321 -11.2242 -11.2170 -11.1428 -10.7063
    -3.5577  -3.5552  -3.5483  -3.5480  -3.5465  -3.5411  -3.5383  -3.5381
    -3.5307  -3.5241  12.9520  13.0367  18.8904  19.2201  19.7398  20.1288
    20.2683  20.2914  20.5666  21.1818  21.3733  21.6108  21.7701  22.0614
    22.3301  22.8309  22.8946  22.9185  23.1115  23.3111  23.5062  23.8786
    24.1100  24.3326  24.7216  24.8339  25.1890  25.2109  25.4335  25.8561
    26.0470  26.1599  26.3095  26.4075  27.1085  27.9441  28.0814  28.4160
    28.7725  29.7432  31.5028  31.6720  31.9104  32.8142  33.2419  33.8077
    34.5133  34.8386  35.0004  35.2980  35.3433  35.6916  36.2721

          k = 0.3409 0.2841 0.1217 (  4291 PWs)   bands (ev):

  -108.8712-108.8670 -64.3380 -64.3379 -64.3376 -64.3374 -64.3324 -64.3312
   -40.4249 -40.3891 -40.3648 -40.3078 -40.2885 -40.2506 -12.3022 -11.9942
   -11.8332 -11.5548 -11.5458 -11.5218 -11.4642 -11.3857 -11.3813 -11.3456
   -11.3229 -11.2948 -11.2692 -11.2347 -11.2346 -11.2233 -11.1409 -10.7969
    -3.5561  -3.5546  -3.5492  -3.5469  -3.5462  -3.5412  -3.5392  -3.5370
    -3.5334  -3.5269  12.9910  13.0668  19.0147  19.3395  19.7866  20.0404
    20.1670  20.3534  20.7766  21.2705  21.4142  21.7115  21.7879  22.0327
    22.3171  22.7659  22.7917  22.9431  23.0390  23.1688  23.4299  23.6412
    24.2300  24.5274  24.7073  24.8638  25.0956  25.2784  25.4395  25.6454
    25.9813  26.0347  26.2123  26.3130  26.9045  27.3006  27.6897  28.8340
    29.1366  29.5117  31.7445  32.1198  32.4811  32.8331  33.1160  33.8248
    34.3810  34.4502  35.2471  35.4327  35.7935  35.8706  36.0436

          k = 0.3409 0.2841 0.2435 (  4305 PWs)   bands (ev):

  -108.8914-108.8794 -64.3431 -64.3407 -64.3398 -64.3377 -64.3359 -64.3353
   -40.4000 -40.3864 -40.3668 -40.3088 -40.2902 -40.2788 -12.0918 -11.9952
   -11.8389 -11.5555 -11.5350 -11.5041 -11.4827 -11.3800 -11.3549 -11.3449
   -11.3318 -11.3007 -11.2743 -11.2542 -11.2454 -11.2407 -11.1396 -11.0375
    -3.5531  -3.5522  -3.5502  -3.5489  -3.5443  -3.5429  -3.5408  -3.5402
    -3.5373  -3.5345  13.0811  13.1263  19.3277  19.5405  19.8356  19.9604
    20.0269  20.3803  21.3604  21.4960  21.5769  21.8132  21.8724  22.0931
    22.3186  22.4534  22.7475  22.8204  22.8878  23.0158  23.2808  23.4667
    24.1743  24.4394  24.8143  25.0073  25.0982  25.2472  25.3046  25.4434
    25.6571  25.8521  25.9924  26.2391  26.2986  26.6071  27.0595  28.0198
    30.0163  30.0327  32.3902  32.5052  32.7426  33.0550  33.7767  34.1044
    34.3288  34.5744  35.1338  35.8723  35.9888  36.0376  36.2321

          k = 0.3409 0.2841 0.3652 (  4303 PWs)   bands (ev):

  -108.8984-108.8660 -64.3446 -64.3405 -64.3391 -64.3387 -64.3342 -64.3334
   -40.3867 -40.3689 -40.3590 -40.3173 -40.3081 -40.2902 -11.9953 -11.8455
   -11.7716 -11.5523 -11.5455 -11.4931 -11.4590 -11.3985 -11.3824 -11.3553
   -11.3383 -11.3136 -11.2915 -11.2764 -11.2601 -11.2568 -11.2512 -11.1377
    -3.5516  -3.5509  -3.5490  -3.5482  -3.5448  -3.5439  -3.5429  -3.5419
    -3.5399  -3.5364  13.1642  13.1734  19.4499  19.6674  19.8772  20.0503
    20.0810  20.2722  21.6007  21.6778  21.8077  21.8993  21.9718  22.1806
    22.2878  22.5034  22.7677  22.9196  22.9292  23.0728  23.2040  23.2946
    23.8991  23.9758  24.8193  24.9221  25.0567  25.1172  25.1787  25.2591
    25.5155  25.6085  25.8170  26.0042  26.0504  26.4593  26.6743  27.2943
    30.4779  30.5803  32.7074  32.8740  32.9781  33.3275  34.1084  34.2033
    34.4409  34.9638  35.3535  36.1523  36.1980  36.2443  36.3322

          k = 0.3409-0.4261 0.0000 (  4310 PWs)   bands (ev):

  -108.8911-108.8907 -64.3442 -64.3442 -64.3405 -64.3405 -64.3346 -64.3345
   -40.4349 -40.3728 -40.3391 -40.3373 -40.3070 -40.2416 -12.3812 -11.8474
   -11.6312 -11.5748 -11.5404 -11.5273 -11.5076 -11.4306 -11.4231 -11.4176
   -11.3632 -11.3092 -11.2993 -11.2787 -11.2203 -11.2199 -11.2136 -10.7098
    -3.5577  -3.5574  -3.5521  -3.5469  -3.5465  -3.5419  -3.5406  -3.5404
    -3.5318  -3.5244  13.0405  13.0413  18.7729  19.2437  19.9291  20.2033
    20.3443  20.4004  20.6652  21.1699  21.1979  21.4939  22.0125  22.2221
    22.8934  22.9474  23.0073  23.0246  23.2868  23.4726  23.6079  23.7376
    23.8062  23.8669  24.0459  24.4338  25.0062  25.0151  25.1252  25.6089
    25.9921  26.1068  26.2274  26.5623  27.1782  28.1452  28.2273  28.2714
    28.3793  29.4417  31.4797  31.8420  32.5279  33.1582  33.6177  34.4785
    34.6283  34.7386  34.7742  35.0536  35.3204  35.3414  36.0296

          k = 0.3409-0.4261 0.1217 (  4308 PWs)   bands (ev):

  -108.8884-108.8884 -64.3429 -64.3428 -64.3406 -64.3405 -64.3348 -64.3346
   -40.4247 -40.3719 -40.3389 -40.3372 -40.3076 -40.2517 -12.3045 -11.8458
   -11.6251 -11.5867 -11.5325 -11.5161 -11.5149 -11.4388 -11.4128 -11.3994
   -11.3525 -11.3129 -11.2988 -11.2798 -11.2302 -11.2300 -11.2237 -10.7972
    -3.5562  -3.5560  -3.5503  -3.5471  -3.5467  -3.5425  -3.5412  -3.5403
    -3.5349  -3.5268  13.0735  13.0744  18.9102  19.3804  19.9685  20.1389
    20.2821  20.3520  20.8529  21.2736  21.2916  21.6194  21.9999  22.2344
    22.7326  22.8319  22.9237  23.0170  23.2274  23.3109  23.4649  23.5887
    23.7805  24.0585  24.3180  24.5200  24.9093  25.0633  25.0908  25.5916
    25.8007  25.9662  26.1038  26.4394  26.9775  27.3212  27.6248  28.6199
    29.1935  29.2482  32.0049  32.4267  32.7502  33.1544  33.4785  34.1800
    34.3493  34.6732  35.1359  35.1838  35.5940  35.9417  36.3356

          k = 0.3409-0.4261 0.2435 (  4308 PWs)   bands (ev):

  -108.8878-108.8874 -64.3438 -64.3436 -64.3397 -64.3397 -64.3348 -64.3347
   -40.3985 -40.3703 -40.3386 -40.3383 -40.3076 -40.2786 -12.0925 -11.8436
   -11.6144 -11.5992 -11.5457 -11.5357 -11.4792 -11.4320 -11.3909 -11.3731
   -11.3349 -11.3229 -11.2910 -11.2834 -11.2532 -11.2516 -11.2474 -11.0384
    -3.5527  -3.5526  -3.5486  -3.5477  -3.5464  -3.5434  -3.5424  -3.5410
    -3.5406  -3.5341  13.1514  13.1520  19.2834  19.6235  19.9954  20.0350
    20.1910  20.2162  21.4472  21.5604  21.5886  21.8358  21.9708  22.2144
    22.4039  22.6223  22.8747  22.8775  23.1170  23.1569  23.3375  23.3777
    23.7515  23.8263  24.7568  24.8657  24.9216  25.0097  25.1438  25.3627
    25.4859  25.7519  25.8778  26.0774  26.3113  26.5543  27.0382  27.4219
    30.2639  30.2798  32.5246  32.9267  33.1147  33.2782  33.8979  34.1451
    34.2588  34.9272  35.7299  35.8280  36.0564  36.2251  36.3203

          k = 0.3409-0.4261 0.3652 (  4294 PWs)   bands (ev):

  -108.8722-108.8721 -64.3411 -64.3410 -64.3373 -64.3371 -64.3316 -64.3315
   -40.3673 -40.3595 -40.3380 -40.3380 -40.3164 -40.3085 -11.8459 -11.7762
   -11.6041 -11.6021 -11.5546 -11.5535 -11.4647 -11.4328 -11.3769 -11.3619
   -11.3371 -11.3274 -11.2942 -11.2895 -11.2808 -11.2779 -11.2764 -11.2664
    -3.5496  -3.5495  -3.5475  -3.5472  -3.5450  -3.5448  -3.5437  -3.5433
    -3.5411  -3.5400  13.2189  13.2191  19.6568  19.7537  19.9663  19.9923
    20.1196  20.1402  21.8380  21.8438  21.9104  21.9233  22.0875  22.1470
    22.4117  22.6120  22.9293  22.9582  23.0348  23.0954  23.1666  23.1771
    23.5203  23.5491  24.8567  24.9176  24.9989  25.0490  25.2414  25.2846
    25.2947  25.3850  25.7321  25.8235  25.9120  26.0437  26.4658  26.5373
    31.1306  31.1312  33.0262  33.1012  33.2111  33.2232  33.8247  33.8296
    35.2124  35.4675  36.1369  36.1628  36.4713  36.4754  36.6149

     the Fermi energy is    28.2781 ev

!    total energy              =   -2114.78505956 Ry
     Harris-Foulkes estimate   =   -2114.78505961 Ry
     estimated scf accuracy    <       0.00000007 Ry

     The total energy is the sum of the following terms:

     one-electron contribution =    -428.48741250 Ry
     hartree contribution      =     320.95736362 Ry
     xc contribution           =    -189.71013068 Ry
     ewald contribution        =   -1817.30323234 Ry
     smearing contrib. (-TS)   =      -0.24164765 Ry

     convergence has been achieved in  13 iterations

     Forces acting on atoms (Ry/au):

     atom    1 type  1   force =     0.00000000    0.00000000    0.00000000
     atom    2 type  1   force =     0.00000000    0.00000000    0.00000000
     atom    3 type  1   force =     0.00000000    0.00000000    0.00000000
     atom    4 type  1   force =     0.00000000    0.00000000    0.00000000
     atom    5 type  1   force =     0.00000000    0.00000000    0.00000000
     atom    6 type  1   force =     0.00000000    0.00000000    0.00000000
     atom    7 type  2   force =     0.00000000    0.00000000    0.00000000
     atom    8 type  2   force =     0.00000000    0.00000000    0.00000000

     Total force =     0.000000     Total SCF correction =     0.000000


     entering subroutine stress ...

          total   stress  (Ry/bohr**3)                   (kbar)     P=   34.70
   0.00023587   0.00000000   0.00000000         34.70      0.00      0.00
   0.00000000   0.00023587   0.00000000          0.00     34.70      0.00
   0.00000000   0.00000000   0.00023587          0.00      0.00     34.70


     Writing output data file Prototype-La-cP8-Cr3Si.save
 
     init_run     :      8.42s CPU     10.94s WALL (       2 calls)
     electrons    :   1730.13s CPU   2060.75s WALL (       5 calls)
     update_pot   :      1.44s CPU      1.46s WALL (       3 calls)
     forces       :      6.60s CPU      7.27s WALL (       5 calls)
     stress       :     18.68s CPU     19.31s WALL (       5 calls)

     Called by init_run:
     wfcinit      :      7.88s CPU     10.38s WALL (       2 calls)
     potinit      :      0.20s CPU      0.21s WALL (       2 calls)

     Called by electrons:
     c_bands      :   1684.89s CPU   1981.57s WALL (      41 calls)
     sum_band     :     44.95s CPU     60.37s WALL (      41 calls)
     v_of_rho     :      0.06s CPU      0.07s WALL (      46 calls)
     mix_rho      :      0.06s CPU      0.07s WALL (      41 calls)

     Called by c_bands:
     init_us_2    :      3.28s CPU      4.13s WALL (    4512 calls)
     ccgdiagg     :   1537.42s CPU   1785.90s WALL (    2206 calls)
     wfcrot       :    151.67s CPU    198.72s WALL (    2254 calls)

     Called by *cgdiagg:
     h_psi        :   1166.53s CPU   1429.56s WALL ( 1071368 calls)
     cdiaghg      :      9.05s CPU      9.75s WALL (    2254 calls)

     Called by h_psi:
     add_vuspsi   :    155.34s CPU    186.28s WALL ( 1071368 calls)

     General routines
     calbec       :    434.16s CPU    459.79s WALL ( 2140962 calls)
     fft          :      0.12s CPU      0.14s WALL (     207 calls)
     fftw         :    690.68s CPU    863.89s WALL ( 2753448 calls)
     davcio       :      2.46s CPU      6.35s WALL (    6480 calls)
 
     Parallel routines
     fft_scatter  :    298.14s CPU    366.38s WALL ( 2753655 calls)
 
     PWSCF        : 29m26.02s CPU    35m 3.37s WALL

 
   This run was terminated on:  23:22:32  22Mar2018            

=------------------------------------------------------------------------------=
   JOB DONE.
=------------------------------------------------------------------------------=
