
     Program PWSCF v.5.0.2 starts on 23Mar2018 at  0:55:57 

     This program is part of the open-source Quantum ESPRESSO suite
     for quantum simulation of materials; please cite
         "P. Giannozzi et al., J. Phys.:Condens. Matter 21 395502 (2009);
          URL http://www.quantum-espresso.org", 
     in publications or presentations arising from this work. More details at
     http://www.quantum-espresso.org/quote.php

     Parallel version (MPI), running on     4 processors
     R & G space division:  proc/nbgrp/npool/nimage =       4

     Current dimensions of program PWSCF are:
     Max number of different atomic species (ntypx) = 10
     Max number of k-points (npk) =  40000
     Max angular momentum in pseudopotentials (lmaxx) =  3
     Waiting for input...
     Reading input from standard input

     Subspace diagonalization in iterative solution of the eigenvalue problem:
     a serial algorithm will be used

 
     Parallelization info
     --------------------
     sticks:   dense  smooth     PW     G-vecs:    dense   smooth      PW
     Min         207     207     61                 7381     7381    1191
     Max         208     208     62                 7386     7386    1192
     Sum         829     829    247                29529    29529    4767
 


     bravais-lattice index     =            0
     lattice parameter (alat)  =       7.0151  a.u.
     unit-cell volume          =     862.2778 (a.u.)^3
     number of atoms/cell      =           12
     number of atomic types    =            2
     number of electrons       =       236.00
     number of Kohn-Sham states=          142
     kinetic-energy cutoff     =      40.0000  Ry
     charge density cutoff     =     160.0000  Ry
     convergence threshold     =      1.0E-04
     mixing beta               =       0.7000
     number of iterations used =            8  plain     mixing
     Exchange-correlation      = SLA-PZ-NOGX-NOGC ( 1 1 0 0 0)
     EXX-fraction              =        0.00
     nstep                     =           50


     celldm(1)=   7.015105  celldm(2)=   0.000000  celldm(3)=   0.000000
     celldm(4)=   0.000000  celldm(5)=   0.000000  celldm(6)=   0.000000

     crystal axes: (cart. coord. in units of alat)
               a(1) = (   1.000000   0.000000   0.000000 )  
               a(2) = (   0.000000   1.315963   0.000000 )  
               a(3) = (   0.000000   0.000000   1.898020 )  

     reciprocal axes: (cart. coord. in units 2 pi/alat)
               b(1) = (  1.000000  0.000000  0.000000 )  
               b(2) = (  0.000000  0.759900  0.000000 )  
               b(3) = (  0.000000  0.000000  0.526865 )  


     PseudoPot. # 1 for Ho read from file:
     /home/cwx6513/pp.La/Ho.UPF
     MD5 check sum: f307ee11bce99f5b724fa279e3790763
     Pseudo is Norm-conserving, Zval = 21.0
     Generated in analytical, separable form
     Using radial grid of 1265 points,  6 beta functions with: 
                l(1) =   0
                l(2) =   0
                l(3) =   1
                l(4) =   1
                l(5) =   2
                l(6) =   3

     PseudoPot. # 2 for Eu read from file:
     /home/cwx6513/pp.La/Eu.UPF
     MD5 check sum: 5efdbbfc50c6a10138933a6429836ad2
     Pseudo is Norm-conserving, Zval = 17.0
     Generated in analytical, separable form
     Using radial grid of 1261 points,  6 beta functions with: 
                l(1) =   0
                l(2) =   0
                l(3) =   1
                l(4) =   1
                l(5) =   2
                l(6) =   3

     atomic species   valence    mass     pseudopotential
        Co            21.00    58.93320     Ho( 1.00)
        Si            17.00    28.08550     Eu( 1.00)

      8 Sym. Ops., with inversion, found ( 6 have fractional translation)



   Cartesian axes

     site n.     atom                  positions (alat units)
         1           Co  tau(   1) = (   0.7500000   1.0875135   0.8270358  )
         2           Co  tau(   2) = (   0.2500000   0.2284499   1.0709846  )
         3           Co  tau(   3) = (   0.7500000   0.4295318   0.1219744  )
         4           Co  tau(   4) = (   0.2500000   0.8864316   1.7760460  )
         5           Co  tau(   5) = (   0.2500000   0.7067855   0.5358966  )
         6           Co  tau(   6) = (   0.7500000   0.6091779   1.3621238  )
         7           Co  tau(   7) = (   0.2500000   0.0488038   0.4131136  )
         8           Co  tau(   8) = (   0.7500000   1.2671596   1.4849068  )
         9           Si  tau(   9) = (   0.2500000   0.2669484   1.6960710  )
        10           Si  tau(  10) = (   0.7500000   1.0490149   0.2019494  )
        11           Si  tau(  11) = (   0.2500000   0.9249301   1.1509596  )
        12           Si  tau(  12) = (   0.7500000   0.3910333   0.7470608  )

     number of k points=    12  gaussian smearing, width (Ry)=  0.1000
                       cart. coord. in units 2pi/alat
        k(    1) = (   0.0000000   0.0000000   0.0000000), wk =   0.0833333
        k(    2) = (   0.0000000   0.0000000   0.1317162), wk =   0.1666667
        k(    3) = (   0.0000000   0.0000000  -0.2634324), wk =   0.0833333
        k(    4) = (   0.0000000   0.2532999   0.0000000), wk =   0.1666667
        k(    5) = (   0.0000000   0.2532999   0.1317162), wk =   0.3333333
        k(    6) = (   0.0000000   0.2532999  -0.2634324), wk =   0.1666667
        k(    7) = (  -0.5000000   0.0000000   0.0000000), wk =   0.0833333
        k(    8) = (  -0.5000000   0.0000000   0.1317162), wk =   0.1666667
        k(    9) = (  -0.5000000   0.0000000  -0.2634324), wk =   0.0833333
        k(   10) = (  -0.5000000   0.2532999   0.0000000), wk =   0.1666667
        k(   11) = (  -0.5000000   0.2532999   0.1317162), wk =   0.3333333
        k(   12) = (  -0.5000000   0.2532999  -0.2634324), wk =   0.1666667

     Dense  grid:    29529 G-vectors     FFT dimensions: (  30,  40,  54)

     Largest allocated arrays     est. size (Mb)     dimensions
        Kohn-Sham Wavefunctions         2.00 Mb     (    922,  142)
        NL pseudopotentials             3.38 Mb     (    922,  240)
        Each V/rho on FFT grid          0.26 Mb     (  16800)
        Each G-vector array             0.06 Mb     (   7386)
        G-vector shells                 0.06 Mb     (   7386)
     Largest temporary arrays     est. size (Mb)     dimensions
        Each subspace H/S matrix        0.31 Mb     ( 142, 142)
        Each <psi_i|beta_j> matrix      0.52 Mb     (    240,  142)
        Arrays for rho mixing           2.05 Mb     (  16800,   8)

     Initial potential from superposition of free atoms

     Starting from uniform charge
     Starting wfc are    0 randomized atomic wfcs

     total cpu time spent up to now is        2.9 secs

     Self-consistent Calculation

     iteration #  1     ecut=    40.00 Ry     beta=0.70
     CG style diagonalization
     c_bands:  3 eigenvalues not converged
     c_bands:  1 eigenvalues not converged
     c_bands:  2 eigenvalues not converged
     c_bands:  2 eigenvalues not converged
     c_bands:  1 eigenvalues not converged
     ethr =  1.00E-02,  avg # of iterations = 15.1

     total cpu time spent up to now is       53.5 secs

     total energy              =   -2612.16465058 Ry
     Harris-Foulkes estimate   =   -3404.68391880 Ry
     estimated scf accuracy    <    1002.96554384 Ry

     iteration #  2     ecut=    40.00 Ry     beta=0.70
     CG style diagonalization
     c_bands:  4 eigenvalues not converged
     c_bands:  1 eigenvalues not converged
     c_bands:  3 eigenvalues not converged
     c_bands:  1 eigenvalues not converged
     c_bands:  1 eigenvalues not converged
     ethr =  1.00E-02,  avg # of iterations = 12.8

     total cpu time spent up to now is       96.4 secs

     total energy              =   -2730.84408069 Ry
     Harris-Foulkes estimate   =   -3271.42713387 Ry
     estimated scf accuracy    <     991.45131880 Ry

     iteration #  3     ecut=    40.00 Ry     beta=0.70
     CG style diagonalization
     c_bands:  1 eigenvalues not converged
     c_bands:  1 eigenvalues not converged
     c_bands:  1 eigenvalues not converged
     ethr =  1.00E-02,  avg # of iterations =  8.8

     total cpu time spent up to now is      125.8 secs

     total energy              =   -3010.34605612 Ry
     Harris-Foulkes estimate   =   -3069.47027496 Ry
     estimated scf accuracy    <     120.37620732 Ry

     iteration #  4     ecut=    40.00 Ry     beta=0.70
     CG style diagonalization
     ethr =  1.00E-02,  avg # of iterations =  4.3

     total cpu time spent up to now is      139.1 secs

     total energy              =   -3032.02702017 Ry
     Harris-Foulkes estimate   =   -3036.25559018 Ry
     estimated scf accuracy    <       8.94562868 Ry

     iteration #  5     ecut=    40.00 Ry     beta=0.70
     CG style diagonalization
     ethr =  3.79E-03,  avg # of iterations =  3.7

     total cpu time spent up to now is      149.6 secs

     total energy              =   -3033.54838701 Ry
     Harris-Foulkes estimate   =   -3033.97339429 Ry
     estimated scf accuracy    <       0.81400434 Ry

     iteration #  6     ecut=    40.00 Ry     beta=0.70
     CG style diagonalization
     c_bands:  1 eigenvalues not converged
     c_bands:  1 eigenvalues not converged
     ethr =  3.45E-04,  avg # of iterations =  4.5

     total cpu time spent up to now is      164.1 secs

     total energy              =   -3033.71540170 Ry
     Harris-Foulkes estimate   =   -3033.77140785 Ry
     estimated scf accuracy    <       0.09962869 Ry

     iteration #  7     ecut=    40.00 Ry     beta=0.70
     CG style diagonalization
     c_bands:  1 eigenvalues not converged
     c_bands:  3 eigenvalues not converged
     ethr =  4.22E-05,  avg # of iterations =  4.4

     total cpu time spent up to now is      178.6 secs

     total energy              =   -3033.74064944 Ry
     Harris-Foulkes estimate   =   -3033.76120589 Ry
     estimated scf accuracy    <       0.03865117 Ry

     iteration #  8     ecut=    40.00 Ry     beta=0.70
     CG style diagonalization
     c_bands:  1 eigenvalues not converged
     ethr =  1.64E-05,  avg # of iterations =  3.7

     total cpu time spent up to now is      190.7 secs

     total energy              =   -3033.74602668 Ry
     Harris-Foulkes estimate   =   -3033.74737092 Ry
     estimated scf accuracy    <       0.00200223 Ry

     iteration #  9     ecut=    40.00 Ry     beta=0.70
     CG style diagonalization
     c_bands:  2 eigenvalues not converged
     c_bands:  2 eigenvalues not converged
     c_bands:  2 eigenvalues not converged
     ethr =  8.48E-07,  avg # of iterations =  4.7

     total cpu time spent up to now is      207.8 secs

     total energy              =   -3033.74683169 Ry
     Harris-Foulkes estimate   =   -3033.74701046 Ry
     estimated scf accuracy    <       0.00030378 Ry

     iteration # 10     ecut=    40.00 Ry     beta=0.70
     CG style diagonalization
     ethr =  1.29E-07,  avg # of iterations =  3.7

     total cpu time spent up to now is      219.9 secs

     End of self-consistent calculation

          k = 0.0000 0.0000 0.0000 (  3675 PWs)   bands (ev):

   -42.3504 -42.2489 -42.1945 -42.1667 -42.1424 -42.0814 -42.0590 -42.0441
   -13.3750 -13.3607 -13.2593 -13.2140  -7.6125  -7.5403  -7.4238  -7.3555
    -7.2770  -7.1726  -7.0581  -6.9429  -6.9409  -6.9023  -6.7450  -6.6970
    -6.6871  -6.6385  -6.6330  -6.5978  -6.5356  -6.4404  -6.3980  -6.3913
    -6.3261  -6.2064  -6.1078  -6.0204  12.5334  12.7576  12.7687  12.8053
    12.8831  12.9327  12.9961  13.0025  13.1925  13.3828  13.4540  13.6823
    31.0381  31.3583  31.6427  31.6481  31.6780  31.7437  31.9754  32.3944
    32.7097  32.9743  33.2884  33.7984  33.8194  34.3008  34.3506  34.5013
    34.8353  35.0854  35.0986  35.5088  35.5469  35.7643  35.9179  36.2262
    36.3422  36.3595  36.5526  36.7044  36.9179  37.3455  37.4522  37.6164
    37.8221  37.8949  38.0788  38.1303  39.0464  39.2276  39.3239  39.4448
    40.1897  40.3102  40.8965  41.5812  43.2860  43.7197  44.0554  44.7067
    44.7836  44.8433  44.8944  46.0437  46.3479  46.8277  46.8583  47.2398
    47.6087  47.7589  48.6209  48.8216  48.8422  48.9230  49.2064  49.5528
    49.7303  52.3035  52.8709  53.1777  53.6535  53.8460  54.8065  55.7058
    55.8168  56.6318  57.1188  57.3075  57.5254  57.8736  57.9689  58.0281
    58.4895  58.5507  58.6564  59.1224  59.3073  59.3175  59.5137  60.1592
    60.2232  60.5836  60.6445  60.8125  60.8485  61.1113

          k = 0.0000 0.0000 0.1317 (  3675 PWs)   bands (ev):

   -42.3429 -42.2704 -42.1800 -42.1748 -42.1352 -42.0975 -42.0528 -42.0373
   -13.3620 -13.3353 -13.2776 -13.2336  -7.6003  -7.5037  -7.4556  -7.3523
    -7.2868  -7.2204  -7.1028  -6.9595  -6.9301  -6.9081  -6.7536  -6.7471
    -6.6874  -6.6383  -6.5953  -6.5916  -6.5306  -6.3899  -6.3883  -6.3794
    -6.2977  -6.1897  -6.0981  -6.0412  12.5677  12.7243  12.7709  12.7951
    12.8960  12.9481  12.9776  12.9978  13.2052  13.3249  13.5079  13.6501
    31.1298  31.1500  31.4668  31.4789  31.6847  31.8123  32.1849  32.4746
    33.0154  33.0219  33.6208  33.9229  34.0087  34.4520  34.4981  34.7289
    34.7396  34.8473  35.2667  35.5438  35.5686  35.7523  35.8067  35.8792
    36.0030  36.3289  36.5116  36.5625  36.8271  36.8806  37.2874  37.2879
    37.8672  37.9479  38.3248  38.5426  38.9986  39.1881  39.1915  39.7108
    39.8835  40.2616  40.2745  42.2130  43.0950  43.1539  44.4290  44.7332
    44.7875  45.0227  45.4737  46.1373  46.3034  46.3830  46.9090  46.9318
    47.5925  47.6088  47.9559  48.5445  48.9403  49.1644  49.2851  49.9277
    51.9365  52.4703  52.6044  53.1515  53.7631  54.7210  55.0975  55.3958
    56.0129  56.3529  56.7667  56.8985  57.0306  57.4327  57.8179  57.9188
    58.1225  58.2757  58.4039  58.8892  59.1184  59.2297  59.2711  59.4515
    59.6058  59.9912  60.4861  60.8416  60.9725  61.2522

          k = 0.0000 0.0000-0.2634 (  3690 PWs)   bands (ev):

   -42.3233 -42.3233 -42.1717 -42.1717 -42.1233 -42.1233 -42.0470 -42.0470
   -13.3222 -13.3222 -13.2829 -13.2829  -7.5517  -7.5517  -7.4105  -7.4105
    -7.2597  -7.2597  -7.0965  -7.0965  -6.8229  -6.8229  -6.8227  -6.8227
    -6.6685  -6.6685  -6.5735  -6.5735  -6.4822  -6.4822  -6.3910  -6.3910
    -6.2209  -6.2209  -6.0774  -6.0774  12.6438  12.6438  12.7872  12.7872
    12.9196  12.9196  12.9804  12.9804  13.2475  13.2475  13.5794  13.5794
    31.1485  31.1485  31.2283  31.2283  31.7532  31.7532  32.9760  32.9760
    33.0083  33.0083  33.5864  33.5864  34.4875  34.4875  34.6575  34.6575
    34.8472  34.8472  35.2127  35.2127  35.5927  35.5927  35.8025  35.8025
    36.1997  36.1997  36.5609  36.5609  36.8195  36.8195  37.2152  37.2152
    37.4675  37.4675  38.5068  38.5068  38.7337  38.7337  39.5104  39.5104
    40.1743  40.1743  41.3100  41.3100  42.8559  42.8559  44.7050  44.7050
    45.7045  45.7045  45.8926  45.8926  45.9501  45.9501  46.6707  46.6707
    47.1574  47.1574  48.0896  48.0896  49.0279  49.0279  50.9229  50.9229
    52.0379  52.0379  53.6820  53.6820  54.1182  54.1182  55.2285  55.2285
    56.2328  56.2328  56.3244  56.3244  57.1735  57.1736  57.4176  57.4176
    57.8187  57.8187  58.2728  58.2729  59.0382  59.0383  59.2207  59.2207
    60.0640  60.0641  60.5983  60.5984  61.2430  61.2446

          k = 0.0000 0.2533 0.0000 (  3664 PWs)   bands (ev):

   -42.3055 -42.2233 -42.1920 -42.1745 -42.1435 -42.0955 -42.0714 -42.0509
   -13.4177 -13.4093 -13.2374 -13.2169  -7.4174  -7.4002  -7.2498  -7.2201
    -7.2016  -7.1593  -7.1297  -7.0485  -6.9912  -6.8903  -6.8367  -6.7660
    -6.6696  -6.6416  -6.5367  -6.5235  -6.4708  -6.4268  -6.4219  -6.3883
    -6.3161  -6.2663  -6.2518  -6.1877  12.5821  12.7387  12.7507  12.7681
    12.8102  12.8303  12.8833  13.0201  13.1455  13.1470  13.4597  13.5595
    31.7095  31.7536  31.9686  32.0842  32.2685  32.2884  32.7454  32.7554
    32.9645  33.0227  33.4122  33.7699  33.8537  33.8905  34.1412  34.5853
    34.7209  35.0162  35.0443  35.2629  35.5213  35.9623  36.0233  36.3519
    36.3853  36.6645  36.7667  36.7989  36.8325  37.2166  37.4489  37.4556
    38.0317  38.0545  38.1332  38.6029  38.7039  38.7524  38.9566  39.9688
    40.3693  40.4071  40.9297  40.9530  42.7306  43.3079  43.7793  43.9450
    44.3018  44.5729  45.3171  45.3750  45.6229  46.0121  46.5357  46.8137
    46.9039  47.0272  47.6323  47.7056  47.8060  48.1101  49.1032  49.4219
    49.6594  50.3185  53.8252  53.9407  54.1807  55.4775  55.9747  56.1073
    56.5084  56.5422  57.0001  57.2752  58.1626  58.1889  58.2308  58.4099
    58.5981  58.7697  58.9561  58.9824  59.1583  59.4928  59.7807  59.8271
    59.9203  60.2181  60.5717  60.7640  60.8813  60.9453

          k = 0.0000 0.2533 0.1317 (  3669 PWs)   bands (ev):

   -42.2988 -42.2460 -42.2023 -42.1696 -42.1312 -42.0854 -42.0822 -42.0604
   -13.4060 -13.3961 -13.2494 -13.2318  -7.4206  -7.3931  -7.3375  -7.2392
    -7.2239  -7.1205  -7.0669  -7.0343  -6.9925  -6.9404  -6.8645  -6.7634
    -6.6766  -6.6090  -6.5444  -6.5312  -6.5154  -6.4388  -6.4117  -6.3418
    -6.3131  -6.2515  -6.2287  -6.1951  12.6047  12.7259  12.7450  12.7640
    12.7926  12.8293  12.9055  13.0051  13.1291  13.1297  13.4777  13.5514
    31.6333  31.6424  31.7647  32.0551  32.2652  32.5638  32.6336  32.8579
    33.1715  33.3074  33.6550  33.7150  33.7677  34.0895  34.1233  34.5617
    34.9843  35.0487  35.1675  35.4237  35.7204  35.7571  35.9977  36.0326
    36.1558  36.3569  36.6975  36.7550  36.9157  37.1288  37.4141  37.5310
    37.7638  38.0463  38.3271  38.7180  38.7243  38.8240  39.0112  39.6965
    39.9223  40.3109  40.4060  41.1643  42.5174  43.1510  44.2032  44.3513
    44.4273  44.7229  44.8934  45.0592  45.5005  46.0501  46.3217  46.7415
    47.0627  47.2317  47.6143  47.7877  48.0489  48.4197  48.5718  49.4679
    50.4415  51.1774  53.8358  54.1996  54.3188  55.1985  55.7486  55.9332
    56.2082  56.7345  56.9011  56.9996  57.5147  58.1723  58.3613  58.4962
    58.5851  58.7490  58.8351  59.0379  59.3705  59.4522  59.6621  59.6670
    60.0889  60.1400  60.5969  60.7115  60.9642  61.1761

          k = 0.0000 0.2533-0.2634 (  3666 PWs)   bands (ev):

   -42.2754 -42.2754 -42.1921 -42.1921 -42.0975 -42.0975 -42.0698 -42.0698
   -13.3849 -13.3849 -13.2562 -13.2562  -7.4069  -7.4069  -7.3221  -7.3221
    -7.1534  -7.1534  -7.0251  -7.0251  -6.9945  -6.9945  -6.8204  -6.8204
    -6.6051  -6.6051  -6.5635  -6.5635  -6.4832  -6.4832  -6.3818  -6.3818
    -6.2575  -6.2575  -6.2011  -6.2011  12.6639  12.6639  12.7603  12.7603
    12.8019  12.8019  12.9562  12.9562  13.1171  13.1171  13.5196  13.5196
    31.5260  31.5260  31.7721  31.7721  32.5989  32.5989  32.9094  32.9094
    33.2058  33.2058  33.9466  33.9466  33.9904  33.9904  34.4268  34.4268
    35.0968  35.0968  35.2422  35.2422  35.5672  35.5672  35.9315  35.9315
    36.2040  36.2040  36.6630  36.6630  37.1213  37.1213  37.3385  37.3385
    38.0991  38.0991  38.3540  38.3540  38.6008  38.6008  39.3446  39.3446
    40.0789  40.0789  40.5032  40.5032  42.7138  42.7138  44.4280  44.4280
    44.7260  44.7260  45.2279  45.2279  45.2407  45.2407  46.4799  46.4799
    47.4495  47.4495  47.8928  47.8928  48.1492  48.1492  48.8030  48.8030
    52.0948  52.0948  53.6110  53.6110  55.1147  55.1147  55.2993  55.2993
    55.7767  55.7767  57.4420  57.4420  57.7524  57.7525  58.3831  58.3832
    58.7752  58.7753  59.0488  59.0488  59.3070  59.3071  59.8526  59.8527
    60.0793  60.0794  60.4725  60.4726  60.9175  60.9177

          k =-0.5000 0.0000 0.0000 (  3722 PWs)   bands (ev):

   -42.2621 -42.2621 -42.1919 -42.1919 -42.1748 -42.1748 -42.0771 -42.0771
   -13.4273 -13.4273 -13.3217 -13.3217  -7.7681  -7.7681  -7.3368  -7.3368
    -7.3190  -7.3190  -7.1807  -7.1807  -6.9181  -6.9181  -6.6587  -6.6587
    -6.6450  -6.6450  -6.6104  -6.6104  -6.3188  -6.3188  -6.2886  -6.2886
    -6.2246  -6.2246  -6.1094  -6.1094  12.6349  12.6349  12.8765  12.8765
    13.0500  13.0500  13.1566  13.1566  13.3838  13.3838  13.4458  13.4458
    31.8997  31.8997  32.0140  32.0140  32.7089  32.7089  32.8640  32.8640
    33.5205  33.5205  33.5295  33.5295  34.1297  34.1297  34.1483  34.1483
    34.3506  34.3506  34.5646  34.5646  35.0096  35.0096  35.2277  35.2277
    35.5263  35.5263  36.2151  36.2151  36.9060  36.9060  37.0165  37.0165
    37.0763  37.0763  38.6116  38.6116  39.7639  39.7639  39.8579  39.8579
    40.6666  40.6666  42.8476  42.8476  43.0650  43.0650  44.3661  44.3661
    44.7703  44.7703  45.2003  45.2003  45.7959  45.7959  46.6515  46.6515
    47.2589  47.2589  47.5357  47.5357  48.6838  48.6838  49.1735  49.1735
    49.4332  49.4332  49.9334  49.9334  53.8966  53.8966  54.7391  54.7391
    55.5742  55.5742  56.4434  56.4434  56.8866  56.8866  57.8804  57.8804
    58.5730  58.5731  59.4946  59.4946  59.8725  59.8726  59.9156  59.9156
    60.5694  60.5694  61.5187  61.5191  61.5938  61.5940

          k =-0.5000 0.0000 0.1317 (  3710 PWs)   bands (ev):

   -42.2604 -42.2604 -42.1832 -42.1832 -42.1689 -42.1689 -42.0762 -42.0762
   -13.4282 -13.4282 -13.3171 -13.3171  -7.7419  -7.7419  -7.4988  -7.4988
    -7.2553  -7.2553  -7.1003  -7.1003  -6.8473  -6.8473  -6.7559  -6.7559
    -6.6707  -6.6707  -6.5398  -6.5398  -6.3402  -6.3402  -6.2523  -6.2523
    -6.2177  -6.2177  -6.1126  -6.1126  12.6340  12.6340  12.9069  12.9069
    13.0519  13.0519  13.1293  13.1293  13.3820  13.3820  13.4406  13.4406
    31.8570  31.8570  32.1204  32.1204  32.5888  32.5888  32.9796  32.9796
    33.5001  33.5001  33.7474  33.7474  33.8288  33.8288  34.1674  34.1674
    34.5310  34.5310  34.7358  34.7358  35.0124  35.0124  35.2648  35.2648
    35.6192  35.6192  35.9941  35.9941  36.7663  36.7663  36.9182  36.9182
    37.5147  37.5147  38.5401  38.5401  39.5127  39.5127  39.7687  39.7687
    40.1968  40.1968  42.1298  42.1298  43.6014  43.6014  44.7566  44.7566
    45.1091  45.1091  45.3377  45.3377  45.5537  45.5537  46.2747  46.2747
    47.2905  47.2905  48.1973  48.1973  48.6775  48.6775  48.7079  48.7079
    49.4680  49.4680  50.6882  50.6882  53.1595  53.1595  54.3365  54.3365
    56.2414  56.2414  56.5638  56.5638  57.3454  57.3454  57.7255  57.7255
    58.2329  58.2329  59.0598  59.0598  59.5508  59.5509  60.5866  60.5867
    60.8439  60.8440  61.3096  61.3097  61.5661  61.5665

          k =-0.5000 0.0000-0.2634 (  3680 PWs)   bands (ev):

   -42.2396 -42.2396 -42.1788 -42.1788 -42.1561 -42.1561 -42.0749 -42.0749
   -13.4276 -13.4276 -13.3127 -13.3127  -7.7209  -7.7209  -7.5517  -7.5517
    -7.2848  -7.2848  -6.9958  -6.9958  -6.8543  -6.8543  -6.7087  -6.7087
    -6.6720  -6.6720  -6.5779  -6.5779  -6.3383  -6.3383  -6.2116  -6.2116
    -6.2041  -6.2041  -6.1029  -6.1029  12.6353  12.6353  12.9457  12.9457
    13.0610  13.0610  13.0900  13.0900  13.3840  13.3840  13.4361  13.4361
    31.7269  31.7269  32.4061  32.4061  32.6790  32.6790  32.7908  32.7908
    33.4848  33.4848  33.6385  33.6385  33.9627  33.9627  34.3071  34.3071
    34.6464  34.6464  34.6646  34.6646  35.0479  35.0479  35.1274  35.1274
    35.9904  35.9904  36.2470  36.2470  36.3539  36.3539  36.6253  36.6253
    37.8732  37.8732  38.7938  38.7938  38.9324  38.9324  39.7191  39.7191
    39.7538  39.7538  41.8175  41.8175  44.1670  44.1670  44.4866  44.4866
    45.2391  45.2391  45.5156  45.5156  45.6438  45.6438  45.8499  45.8499
    47.8988  47.8988  48.0309  48.0309  48.5451  48.5451  49.0868  49.0868
    49.7376  49.7376  51.4130  51.4130  51.5996  51.5996  54.8442  54.8442
    56.2546  56.2546  56.3819  56.3819  56.8605  56.8605  58.1697  58.1697
    59.0598  59.0598  59.2441  59.2441  59.7181  59.7181  59.8257  59.8257
    61.0158  61.0158  61.1639  61.1640  61.6834  61.6836

          k =-0.5000 0.2533 0.0000 (  3686 PWs)   bands (ev):

   -42.2174 -42.2174 -42.1928 -42.1928 -42.1509 -42.1509 -42.1017 -42.1017
   -13.4250 -13.4250 -13.3720 -13.3720  -7.5278  -7.5278  -7.2892  -7.2892
    -7.2156  -7.2156  -6.9728  -6.9728  -6.9368  -6.9368  -6.7932  -6.7932
    -6.7300  -6.7300  -6.5790  -6.5790  -6.3621  -6.3621  -6.3230  -6.3230
    -6.2358  -6.2358  -6.2094  -6.2094  12.6641  12.6641  12.7730  12.7730
    13.0537  13.0537  13.0861  13.0861  13.3251  13.3251  13.3298  13.3298
    32.4137  32.4137  32.4826  32.4826  33.0500  33.0500  33.0686  33.0686
    33.4621  33.4621  33.5695  33.5695  34.3039  34.3039  34.4074  34.4074
    34.8282  34.8282  35.0159  35.0159  35.1592  35.1592  35.4000  35.4000
    35.8020  35.8020  35.9904  35.9904  36.5965  36.5965  37.1078  37.1078
    37.5712  37.5712  38.0670  38.0670  38.8752  38.8752  39.3885  39.3885
    40.6438  40.6438  42.5146  42.5146  42.9769  42.9769  43.4495  43.4495
    44.6361  44.6361  44.6632  44.6632  45.7539  45.7539  46.2783  46.2783
    46.9744  46.9744  47.1151  47.1151  47.4104  47.4104  48.1955  48.1955
    50.9316  50.9316  51.0527  51.0527  52.6820  52.6820  53.6264  53.6264
    55.8142  55.8142  56.5103  56.5103  57.8159  57.8159  57.9515  57.9515
    58.7106  58.7106  59.3711  59.3712  60.0234  60.0236  60.4975  60.4975
    60.8907  60.8908  61.7943  61.7945  62.0568  62.0570

          k =-0.5000 0.2533 0.1317 (  3692 PWs)   bands (ev):

   -42.2267 -42.2267 -42.1930 -42.1930 -42.1502 -42.1502 -42.1005 -42.1005
   -13.4242 -13.4242 -13.3708 -13.3708  -7.5355  -7.5355  -7.3463  -7.3463
    -7.1798  -7.1798  -7.0649  -7.0649  -6.8796  -6.8796  -6.7997  -6.7997
    -6.6712  -6.6712  -6.5243  -6.5243  -6.3805  -6.3805  -6.3330  -6.3330
    -6.2673  -6.2673  -6.2121  -6.2121  12.6679  12.6679  12.7930  12.7930
    13.0426  13.0426  13.0618  13.0618  13.3161  13.3161  13.3319  13.3319
    32.2361  32.2361  32.6612  32.6612  32.8945  32.8945  33.3182  33.3182
    33.4836  33.4836  33.7310  33.7310  34.1450  34.1450  34.5197  34.5197
    34.7319  34.7319  34.9581  34.9581  35.2715  35.2715  35.6011  35.6011
    35.6367  35.6367  36.1592  36.1592  36.6197  36.6197  36.9562  36.9562
    37.6739  37.6739  37.9787  37.9787  38.7875  38.7875  39.2926  39.2926
    40.5297  40.5297  41.5514  41.5514  43.3392  43.3392  44.0243  44.0243
    44.4430  44.4430  44.7049  44.7049  45.4419  45.4419  46.3448  46.3448
    46.8467  46.8467  47.2020  47.2020  47.4904  47.4904  48.4336  48.4336
    50.9630  50.9630  51.5526  51.5526  52.4564  52.4564  53.9609  53.9609
    55.8335  55.8335  56.8171  56.8171  57.6376  57.6377  58.2551  58.2551
    58.5222  58.5222  59.1632  59.1632  59.9804  59.9804  60.4757  60.4757
    60.9967  60.9968  61.4373  61.4374  62.1409  62.1423

          k =-0.5000 0.2533-0.2634 (  3704 PWs)   bands (ev):

   -42.2274 -42.2274 -42.1959 -42.1959 -42.1592 -42.1592 -42.1045 -42.1045
   -13.4244 -13.4244 -13.3696 -13.3696  -7.5550  -7.5550  -7.3240  -7.3240
    -7.2548  -7.2548  -7.0954  -7.0954  -6.8551  -6.8551  -6.8121  -6.8121
    -6.5957  -6.5957  -6.4778  -6.4778  -6.4105  -6.4105  -6.3772  -6.3772
    -6.2438  -6.2438  -6.2350  -6.2350  12.6672  12.6672  12.8165  12.8165
    13.0319  13.0319  13.0333  13.0333  13.3115  13.3115  13.3275  13.3275
    32.0973  32.0973  32.7508  32.7508  33.0307  33.0307  33.3582  33.3582
    33.5989  33.5989  33.8566  33.8566  33.8568  33.8568  34.6263  34.6263
    34.8179  34.8179  35.0016  35.0016  35.0199  35.0199  35.7487  35.7487
    35.8851  35.8851  36.2756  36.2756  36.4796  36.4796  36.8504  36.8504
    37.3458  37.3458  38.4300  38.4300  38.5716  38.5716  39.1854  39.1854
    40.4016  40.4016  41.0495  41.0495  43.4087  43.4087  44.1365  44.1365
    44.3584  44.3584  44.6805  44.6805  45.7846  45.7846  45.8081  45.8081
    46.7059  46.7059  47.3226  47.3226  48.1999  48.1999  48.3122  48.3122
    51.0438  51.0438  51.5455  51.5455  52.4928  52.4928  55.0636  55.0636
    55.1736  55.1736  57.0937  57.0938  57.6465  57.6465  58.1423  58.1423
    58.3872  58.3872  59.3175  59.3176  59.8440  59.8441  60.5983  60.5983
    60.6731  60.6731  61.1962  61.1963  61.7353  61.7356

     the Fermi energy is    54.4440 ev

!    total energy              =   -3033.74689710 Ry
     Harris-Foulkes estimate   =   -3033.74691462 Ry
     estimated scf accuracy    <       0.00001617 Ry

     The total energy is the sum of the following terms:

     one-electron contribution =     253.39730395 Ry
     hartree contribution      =     245.54798180 Ry
     xc contribution           =    -296.75673690 Ry
     ewald contribution        =   -3235.71722048 Ry
     smearing contrib. (-TS)   =      -0.21822546 Ry

     convergence has been achieved in  10 iterations

     Forces acting on atoms (Ry/au):

     atom    1 type  1   force =     0.00000000   -0.09209076   -0.06990486
     atom    2 type  1   force =     0.00000000    0.09209076    0.06990486
     atom    3 type  1   force =     0.00000000   -0.09209076    0.06990486
     atom    4 type  1   force =     0.00000000    0.09209076   -0.06990486
     atom    5 type  1   force =     0.00000000    0.14984590   -0.16894015
     atom    6 type  1   force =     0.00000000   -0.14984590    0.16894015
     atom    7 type  1   force =     0.00000000    0.14984590    0.16894015
     atom    8 type  1   force =     0.00000000   -0.14984590   -0.16894015
     atom    9 type  2   force =     0.00000000   -0.18707007   -0.02175558
     atom   10 type  2   force =     0.00000000    0.18707007    0.02175558
     atom   11 type  2   force =     0.00000000   -0.18707007    0.02175558
     atom   12 type  2   force =     0.00000000    0.18707007   -0.02175558

     Total force =     0.631919     Total SCF correction =     0.000000


     entering subroutine stress ...

          total   stress  (Ry/bohr**3)                   (kbar)     P= 7349.64
   0.05322006   0.00000000   0.00000000       7828.94      0.00      0.00
   0.00000000   0.04680692   0.00000000          0.00   6885.53      0.00
   0.00000000   0.00000000   0.04985854          0.00      0.00   7334.44


     BFGS Geometry Optimization

     number of scf cycles    =   1
     number of bfgs steps    =   0

     enthalpy new            =   -3033.7468970981 Ry

     new trust radius        =       0.5000000000 bohr
     new conv_thr            =       0.0001000000 Ry

     new unit-cell volume =   1085.96917 a.u.^3 (   160.92403 Ang^3 )

CELL_PARAMETERS (alat=  7.01510508)
   1.085136619   0.000000000   0.000000000
   0.000000000   1.414499372   0.000000000
   0.000000000   0.000000000   2.049404925

ATOMIC_POSITIONS (crystal)
Co       0.750000000   0.825762679   0.435400051
Co       0.250000000   0.174237321   0.564599949
Co       0.750000000   0.325762679   0.064599949
Co       0.250000000   0.674237321   0.935400051
Co       0.250000000   0.538124647   0.281533107
Co       0.750000000   0.461875353   0.718466893
Co       0.250000000   0.038124647   0.218466893
Co       0.750000000   0.961875353   0.781533107
Si       0.250000000   0.201557336   0.893495447
Si       0.750000000   0.798442664   0.106504553
Si       0.250000000   0.701557336   0.606504553
Si       0.750000000   0.298442664   0.393495447



     Writing output data file Prototype-La-oP12-Co2Si.save
     NEW-OLD atomic charge density approx. for the potential
     NEW k-points:
        k(    1) = (   0.0000000   0.0000000   0.0000000), wk =   0.0833333
        k(    2) = (   0.0000000   0.0000000   0.1219866), wk =   0.1666667
        k(    3) = (   0.0000000   0.0000000  -0.2439733), wk =   0.0833333
        k(    4) = (   0.0000000   0.2356546   0.0000000), wk =   0.1666667
        k(    5) = (   0.0000000   0.2356546   0.1219866), wk =   0.3333333
        k(    6) = (   0.0000000   0.2356546  -0.2439733), wk =   0.1666667
        k(    7) = (  -0.4607715   0.0000000   0.0000000), wk =   0.0833333
        k(    8) = (  -0.4607715   0.0000000   0.1219866), wk =   0.1666667
        k(    9) = (  -0.4607715   0.0000000  -0.2439733), wk =   0.0833333
        k(   10) = (  -0.4607715   0.2356546   0.0000000), wk =   0.1666667
        k(   11) = (  -0.4607715   0.2356546   0.1219866), wk =   0.3333333
        k(   12) = (  -0.4607715   0.2356546  -0.2439733), wk =   0.1666667

     total cpu time spent up to now is      226.0 secs

     Self-consistent Calculation

     iteration #  1     ecut=    40.00 Ry     beta=0.70
     CG style diagonalization
     c_bands:  3 eigenvalues not converged
     c_bands:  2 eigenvalues not converged
     c_bands:  3 eigenvalues not converged
     c_bands:  1 eigenvalues not converged
     c_bands:  2 eigenvalues not converged
     c_bands:  1 eigenvalues not converged
     ethr =  1.00E-06,  avg # of iterations = 22.5

     total cpu time spent up to now is      305.6 secs

     total energy              =   -3029.67996348 Ry
     Harris-Foulkes estimate   =   -3056.40037673 Ry
     estimated scf accuracy    <      34.30284981 Ry

     iteration #  2     ecut=    40.00 Ry     beta=0.70
     CG style diagonalization
     ethr =  1.00E-02,  avg # of iterations =  3.8

     total cpu time spent up to now is      318.7 secs

     total energy              =   -3039.63063518 Ry
     Harris-Foulkes estimate   =   -3041.91709483 Ry
     estimated scf accuracy    <       3.40282851 Ry

     iteration #  3     ecut=    40.00 Ry     beta=0.70
     CG style diagonalization
     ethr =  1.44E-03,  avg # of iterations =  3.6

     total cpu time spent up to now is      330.9 secs

     total energy              =   -3040.41049953 Ry
     Harris-Foulkes estimate   =   -3040.48713310 Ry
     estimated scf accuracy    <       0.13303458 Ry

     iteration #  4     ecut=    40.00 Ry     beta=0.70
     CG style diagonalization
     c_bands:  2 eigenvalues not converged
     ethr =  5.64E-05,  avg # of iterations =  4.1

     total cpu time spent up to now is      345.3 secs

     total energy              =   -3040.45756512 Ry
     Harris-Foulkes estimate   =   -3040.46484850 Ry
     estimated scf accuracy    <       0.01418117 Ry

     iteration #  5     ecut=    40.00 Ry     beta=0.70
     CG style diagonalization
     ethr =  6.01E-06,  avg # of iterations =  4.0

     total cpu time spent up to now is      357.9 secs

     total energy              =   -3040.46096015 Ry
     Harris-Foulkes estimate   =   -3040.46173123 Ry
     estimated scf accuracy    <       0.00137246 Ry

     iteration #  6     ecut=    40.00 Ry     beta=0.70
     CG style diagonalization
     ethr =  5.82E-07,  avg # of iterations =  3.6

     total cpu time spent up to now is      369.8 secs

     End of self-consistent calculation

          k = 0.0000 0.0000 0.0000 (  3675 PWs)   bands (ev):

   -52.0539 -52.0116 -51.9884 -51.9472 -51.9217 -51.9149 -51.8810 -51.8801
   -22.9831 -22.9815 -22.9632 -22.9588 -16.9531 -16.8667 -16.8027 -16.7433
   -16.6889 -16.6533 -16.5535 -16.5417 -16.4975 -16.4896 -16.4813 -16.4624
   -16.4416 -16.3854 -16.3661 -16.3568 -16.3402 -16.3357 -16.2957 -16.2592
   -16.2457 -16.2226 -16.1934 -16.1591   3.5957   3.6991   3.7146   3.7352
     3.7373   3.7411   3.7533   3.7775   3.9296   4.0399   4.0648   4.1991
    23.2944  23.5959  23.6301  23.7135  23.7268  23.8822  23.9019  24.1395
    24.3803  24.4917  24.8058  25.0579  25.2192  25.4468  25.4692  25.6418
    25.8608  25.9881  26.1154  26.1803  26.2333  26.4325  26.4771  26.5726
    26.6142  26.9181  26.9837  27.0366  27.1804  27.3440  27.4113  27.4783
    27.6262  27.7454  27.8691  27.9709  28.6256  28.7952  28.8302  28.9313
    29.1885  30.0883  30.2847  30.6554  33.0683  33.5412  33.8114  34.1337
    34.1933  34.9505  35.3318  35.6307  35.9395  35.9675  36.0245  36.2829
    36.4339  36.7589  37.3641  37.6233  37.7598  37.8996  37.9349  38.0247
    38.1318  40.5017  40.9211  41.0121  41.2363  41.7346  42.7566  44.7061
    44.8753  45.7771  45.7971  45.8723  46.1970  46.5446  46.6363  46.9464
    47.2489  47.5892  47.8834  47.8850  47.9213  47.9729  48.1583  48.3732
    48.4802  48.5789  48.6278  48.7204  48.8158  49.2407

          k = 0.0000 0.0000 0.1220 (  3675 PWs)   bands (ev):

   -52.0561 -52.0476 -51.9920 -51.9183 -51.9043 -51.9011 -51.8992 -51.8836
   -22.9827 -22.9747 -22.9665 -22.9638 -16.9528 -16.8728 -16.7830 -16.7501
   -16.6969 -16.6625 -16.6330 -16.5315 -16.5152 -16.4885 -16.4448 -16.4441
   -16.4366 -16.3814 -16.3743 -16.3552 -16.3551 -16.3100 -16.2694 -16.2483
   -16.2352 -16.2184 -16.2023 -16.1749   3.6173   3.6982   3.7000   3.7015
     3.7483   3.7596   3.7625   3.7734   3.9431   3.9973   4.1049   4.1783
    23.3743  23.4451  23.5408  23.5955  23.7503  23.7662  24.0804  24.2085
    24.5705  24.6587  24.9094  25.1688  25.3277  25.5787  25.6397  25.6796
    25.7602  25.8195  26.1686  26.1953  26.2447  26.3335  26.4341  26.5127
    26.6497  26.8323  26.8520  26.9386  27.1009  27.1333  27.3164  27.3459
    27.6961  27.8199  27.9542  28.2096  28.6177  28.6294  28.7222  29.0279
    29.1261  29.2230  30.4720  31.4608  32.7753  32.9037  34.1567  34.3867
    34.6775  35.0165  35.1824  35.3804  35.5004  36.0058  36.0564  36.1355
    36.3822  36.3948  37.3224  37.7667  37.7718  37.9166  38.0553  38.3909
    39.7945  40.4074  40.7202  41.1012  41.3228  42.2101  42.7836  43.7876
    44.4848  45.1629  45.4044  45.6220  46.2076  46.3331  46.4346  46.9502
    46.9586  47.1907  47.6156  47.7161  47.8258  47.8840  48.5026  48.5902
    48.6599  48.7267  48.8190  49.0718  49.2359  49.3290

          k = 0.0000 0.0000-0.2440 (  3690 PWs)   bands (ev):

   -52.0512 -52.0512 -52.0014 -52.0014 -51.9146 -51.9146 -51.8773 -51.8773
   -22.9754 -22.9754 -22.9725 -22.9725 -16.9387 -16.9387 -16.7399 -16.7399
   -16.6936 -16.6936 -16.6081 -16.6081 -16.4654 -16.4654 -16.4481 -16.4481
   -16.4232 -16.4232 -16.3715 -16.3715 -16.3476 -16.3476 -16.2567 -16.2567
   -16.2413 -16.2413 -16.2047 -16.2047   3.6567   3.6567   3.6955   3.6955
     3.7491   3.7491   3.7705   3.7705   3.9574   3.9574   4.1369   4.1369
    23.4281  23.4281  23.4356  23.4356  23.7077  23.7077  24.5206  24.5206
    24.5795  24.5795  25.0612  25.0612  25.4987  25.4987  25.6539  25.6539
    25.9086  25.9086  26.0798  26.0798  26.2792  26.2792  26.5548  26.5548
    26.6341  26.6341  26.9434  26.9434  27.0669  27.0669  27.2315  27.2315
    27.5286  27.5286  28.3040  28.3040  28.3152  28.3152  28.7932  28.7932
    29.1815  29.1815  31.2493  31.2493  32.4977  32.4977  34.7576  34.7576
    34.9200  34.9200  35.2408  35.2408  35.3137  35.3137  35.9005  35.9005
    36.3399  36.3399  37.5092  37.5092  37.8784  37.8784  39.2472  39.2472
    39.9801  39.9801  41.3148  41.3148  41.8484  41.8484  42.6067  42.6067
    44.6804  44.6804  45.4445  45.4445  45.8913  45.8914  46.2290  46.2290
    47.2158  47.2158  47.2840  47.2840  47.8702  47.8703  48.7234  48.7234
    48.8037  48.8038  49.2372  49.2371  49.3221  49.3221

          k = 0.0000 0.2357 0.0000 (  3664 PWs)   bands (ev):

   -52.0251 -52.0044 -51.9784 -51.9492 -51.9165 -51.9043 -51.8790 -51.8687
   -22.9927 -22.9926 -22.9594 -22.9523 -16.8140 -16.7426 -16.7346 -16.6959
   -16.6615 -16.6389 -16.6222 -16.6042 -16.5513 -16.5270 -16.5051 -16.4972
   -16.4187 -16.3941 -16.3583 -16.3493 -16.3112 -16.2981 -16.2954 -16.2662
   -16.2641 -16.2207 -16.2190 -16.2021   3.6227   3.6679   3.6878   3.6954
     3.7226   3.7414   3.7623   3.7839   3.9176   3.9464   4.1069   4.1454
    23.7796  23.8138  23.8865  24.0151  24.0555  24.2624  24.3389  24.4543
    24.6294  24.6832  24.8096  25.1643  25.2022  25.2096  25.3054  25.5873
    25.6382  25.8851  25.9690  26.1305  26.1939  26.3778  26.6353  26.7150
    26.8429  26.8921  27.0351  27.0507  27.0680  27.3712  27.3946  27.6067
    27.7790  27.8221  27.9348  28.3255  28.3511  28.3998  28.5645  29.1038
    29.2862  29.6209  30.5605  30.5947  32.4461  33.1586  33.2321  33.8526
    34.2015  34.3877  34.4729  34.9744  35.0492  35.7251  36.0252  36.1487
    36.4058  36.4895  36.9427  37.0792  37.0793  37.3306  37.7136  37.9197
    38.4623  38.8920  41.4924  41.8003  42.2775  43.4933  43.9552  44.5690
    44.9957  45.2256  45.6014  45.8117  46.2667  46.2919  46.3947  47.0275
    47.1003  47.2416  47.6698  47.7731  47.9510  48.0407  48.4783  48.7916
    48.8027  48.9098  49.0202  49.0322  49.6126  49.8160

          k = 0.0000 0.2357 0.1220 (  3669 PWs)   bands (ev):

   -52.0262 -52.0158 -51.9782 -51.9532 -51.9158 -51.9132 -51.8912 -51.8709
   -22.9953 -22.9921 -22.9596 -22.9560 -16.8303 -16.7787 -16.7325 -16.6894
   -16.6735 -16.6436 -16.6106 -16.5859 -16.5592 -16.5509 -16.4924 -16.4778
   -16.4424 -16.3883 -16.3645 -16.3531 -16.3207 -16.3121 -16.2761 -16.2562
   -16.2552 -16.2208 -16.2208 -16.2109   3.6299   3.6686   3.6796   3.6948
     3.7172   3.7365   3.7624   3.7853   3.9180   3.9356   4.1068   4.1407
    23.6876  23.7303  23.7676  24.0010  24.0944  24.3137  24.4296  24.4605
    24.7583  24.8257  24.9562  25.1515  25.1661  25.2519  25.3118  25.5414
    25.8519  26.0112  26.0977  26.1883  26.3602  26.3908  26.4398  26.5930
    26.6923  26.7361  26.9249  27.0343  27.0895  27.3396  27.3493  27.5978
    27.6867  27.8374  28.0847  28.2849  28.3378  28.4849  28.6339  29.1076
    29.2529  29.2854  29.7695  30.9947  32.1400  32.9879  33.8885  34.0516
    34.2450  34.3489  34.4196  34.8771  34.8908  35.3980  35.8903  36.1709
    36.5370  36.5946  36.9289  37.2611  37.3374  37.4116  37.5259  38.1107
    38.9180  39.5042  41.7951  41.8395  42.3484  43.3714  43.6111  44.0604
    44.4433  44.6854  45.1876  45.2787  46.0419  46.4176  46.9045  47.2092
    47.2616  47.3257  47.5560  47.6095  47.9796  48.3489  48.4216  48.7828
    48.8874  49.0247  49.4004  49.4998  49.6179  49.8002

          k = 0.0000 0.2357-0.2440 (  3666 PWs)   bands (ev):

   -52.0118 -52.0118 -51.9635 -51.9635 -51.9193 -51.9193 -51.8798 -51.8798
   -22.9934 -22.9934 -22.9574 -22.9574 -16.8152 -16.8152 -16.6993 -16.6993
   -16.6609 -16.6609 -16.5774 -16.5774 -16.5697 -16.5697 -16.4738 -16.4738
   -16.4125 -16.4125 -16.3412 -16.3412 -16.3376 -16.3376 -16.2726 -16.2726
   -16.2417 -16.2417 -16.2065 -16.2065   3.6519   3.6519   3.6874   3.6874
     3.7267   3.7267   3.7711   3.7711   3.9283   3.9283   4.1239   4.1239
    23.6058  23.6058  23.8208  23.8208  24.2896  24.2896  24.5599  24.5599
    24.7582  24.7582  25.1850  25.1850  25.2737  25.2737  25.4734  25.4734
    26.0882  26.0882  26.1234  26.1234  26.2767  26.2767  26.4905  26.4905
    26.6400  26.6400  26.9284  26.9284  27.1932  27.1932  27.4565  27.4565
    28.0294  28.0294  28.0564  28.0564  28.2406  28.2406  28.7440  28.7440
    29.1708  29.1708  30.2267  30.2267  32.5248  32.5248  34.2905  34.2905
    34.4527  34.4527  34.5502  34.5502  34.8055  34.8055  36.0049  36.0049
    36.8019  36.8019  36.9431  36.9431  37.4722  37.4722  37.8752  37.8752
    40.2268  40.2268  41.4488  41.4488  42.9330  42.9330  43.3346  43.3346
    44.1012  44.1012  45.6061  45.6061  45.7326  45.7326  46.7345  46.7345
    47.5565  47.5565  47.8311  47.8312  48.3911  48.3911  48.4255  48.4257
    48.7881  48.7881  49.5716  49.5716  49.7906  49.7906

          k =-0.4608 0.0000 0.0000 (  3722 PWs)   bands (ev):

   -52.0587 -52.0587 -51.9983 -51.9983 -51.9562 -51.9562 -51.9424 -51.9424
   -23.0086 -23.0086 -22.9799 -22.9799 -16.9910 -16.9910 -16.7704 -16.7704
   -16.7165 -16.7165 -16.6483 -16.6483 -16.5323 -16.5323 -16.4364 -16.4364
   -16.4101 -16.4101 -16.3825 -16.3825 -16.2809 -16.2809 -16.2605 -16.2605
   -16.2258 -16.2258 -16.2145 -16.2145   3.6002   3.6002   3.6948   3.6948
     3.7681   3.7681   3.8160   3.8160   4.0287   4.0287   4.0817   4.0817
    23.8138  23.8138  23.8433  23.8433  24.3142  24.3142  24.5131  24.5131
    24.8790  24.8790  25.0612  25.0612  25.3385  25.3385  25.5125  25.5125
    25.5816  25.5816  25.8546  25.8546  25.9734  25.9734  26.0715  26.0715
    26.2478  26.2478  26.7169  26.7169  27.1444  27.1444  27.2768  27.2768
    27.3073  27.3073  28.2528  28.2528  29.0182  29.0182  29.0664  29.0664
    29.8998  29.8998  32.3710  32.3710  32.6118  32.6118  34.0637  34.0637
    34.6764  34.6764  35.1286  35.1286  35.3319  35.3319  35.8360  35.8360
    36.1167  36.1167  37.0637  37.0637  37.3421  37.3421  37.9765  37.9765
    38.0380  38.0380  38.4677  38.4677  42.2121  42.2121  43.1210  43.1210
    44.0172  44.0172  44.7009  44.7009  45.4517  45.4517  46.7810  46.7810
    47.3470  47.3470  48.0181  48.0181  48.2378  48.2379  48.7462  48.7462
    48.7612  48.7613  49.3123  49.3123  50.0544  50.0544

          k =-0.4608 0.0000 0.1220 (  3710 PWs)   bands (ev):

   -52.0499 -52.0499 -51.9883 -51.9883 -51.9536 -51.9536 -51.9234 -51.9234
   -23.0070 -23.0070 -22.9765 -22.9765 -16.9835 -16.9835 -16.8014 -16.8014
   -16.6794 -16.6794 -16.6243 -16.6243 -16.5133 -16.5133 -16.4528 -16.4528
   -16.4235 -16.4235 -16.3707 -16.3707 -16.2740 -16.2740 -16.2441 -16.2441
   -16.2302 -16.2302 -16.2158 -16.2158   3.6027   3.6027   3.7122   3.7122
     3.7744   3.7744   3.8121   3.8121   4.0296   4.0296   4.0781   4.0781
    23.7441  23.7441  23.9830  23.9830  24.2247  24.2247  24.5944  24.5944
    24.8492  24.8492  25.1564  25.1564  25.1878  25.1878  25.5186  25.5186
    25.6411  25.6411  25.9147  25.9147  25.9498  25.9498  26.1571  26.1571
    26.3390  26.3390  26.6747  26.6747  27.1264  27.1264  27.1542  27.1542
    27.5057  27.5057  28.2000  28.2000  28.8485  28.8485  29.0373  29.0373
    29.8366  29.8366  31.4426  31.4426  33.1651  33.1651  34.5573  34.5573
    34.8181  34.8181  35.1393  35.1393  35.2612  35.2612  35.5410  35.5410
    36.2469  36.2469  37.0097  37.0097  37.4838  37.4838  37.7955  37.7955
    38.1716  38.1716  39.0302  39.0302  41.2427  41.2427  43.3076  43.3076
    44.6420  44.6420  44.9569  44.9569  45.5049  45.5049  46.3264  46.3264
    47.0096  47.0096  47.5849  47.5849  48.1301  48.1301  48.6727  48.6727
    49.0491  49.0491  49.6908  49.6908  50.1361  50.1362

          k =-0.4608 0.0000-0.2440 (  3680 PWs)   bands (ev):

   -52.0023 -52.0023 -51.9873 -51.9873 -51.9215 -51.9215 -51.9108 -51.9108
   -22.9996 -22.9996 -22.9733 -22.9733 -16.9872 -16.9872 -16.7967 -16.7967
   -16.6764 -16.6764 -16.5365 -16.5365 -16.5050 -16.5050 -16.4430 -16.4430
   -16.4415 -16.4415 -16.3869 -16.3869 -16.2670 -16.2670 -16.2253 -16.2253
   -16.2080 -16.2080 -16.1986 -16.1986   3.6109   3.6109   3.7306   3.7306
     3.7814   3.7814   3.8161   3.8161   4.0383   4.0383   4.0775   4.0775
    23.6810  23.6810  24.1567  24.1567  24.2500  24.2500  24.4613  24.4613
    24.8775  24.8775  25.0624  25.0624  25.2589  25.2589  25.5059  25.5059
    25.7783  25.7783  25.9045  25.9045  25.9651  25.9651  26.1355  26.1355
    26.6097  26.6097  26.7360  26.7360  26.8020  26.8020  27.0469  27.0469
    27.8082  27.8082  28.2678  28.2678  28.5154  28.5154  29.0149  29.0149
    29.7520  29.7520  31.0098  31.0098  33.4472  33.4472  34.6001  34.6001
    34.9542  34.9542  35.0825  35.0825  35.2485  35.2485  35.3676  35.3676
    36.9109  36.9109  37.0036  37.0036  37.0234  37.0234  38.0169  38.0169
    38.4090  38.4090  39.8600  39.8600  39.8924  39.8924  43.6215  43.6215
    44.8772  44.8772  45.0554  45.0554  45.4945  45.4945  46.2744  46.2744
    46.9984  46.9984  47.3660  47.3660  47.5089  47.5089  48.8518  48.8518
    48.9632  48.9632  49.9268  49.9270  50.1224  50.1224

          k =-0.4608 0.2357 0.0000 (  3686 PWs)   bands (ev):

   -52.0136 -52.0136 -51.9961 -51.9961 -51.9246 -51.9246 -51.9199 -51.9199
   -23.0036 -23.0036 -22.9857 -22.9857 -16.8458 -16.8458 -16.7174 -16.7174
   -16.7117 -16.7117 -16.5716 -16.5716 -16.5613 -16.5613 -16.4690 -16.4690
   -16.4250 -16.4250 -16.3935 -16.3935 -16.2969 -16.2969 -16.2599 -16.2599
   -16.2263 -16.2263 -16.2112 -16.2112   3.6145   3.6145   3.6572   3.6572
     3.7880   3.7880   3.8029   3.8029   4.0300   4.0300   4.0442   4.0442
    24.1078  24.1078  24.2661  24.2661  24.5586  24.5586  24.6730  24.6730
    24.9863  24.9863  25.0348  25.0348  25.5044  25.5044  25.6048  25.6048
    25.7630  25.7630  25.9477  25.9477  26.0440  26.0440  26.2609  26.2609
    26.4860  26.4860  26.5953  26.5953  26.8566  26.8566  27.2367  27.2367
    27.5703  27.5703  27.9229  27.9229  28.4309  28.4309  28.7179  28.7179
    30.3734  30.3734  31.9163  31.9163  32.6550  32.6550  33.3076  33.3076
    34.2583  34.2583  34.3552  34.3552  35.6094  35.6094  35.7511  35.7511
    36.1748  36.1748  36.5370  36.5370  36.8018  36.8018  37.0330  37.0330
    39.1053  39.1053  39.2134  39.2134  40.9018  40.9018  41.3717  41.3717
    44.7983  44.7983  45.7651  45.7651  46.8259  46.8259  47.2743  47.2743
    47.8518  47.8518  48.3296  48.3296  48.3995  48.3995  48.9897  48.9897
    49.5609  49.5609  49.7058  49.7058  50.8004  50.8005

          k =-0.4608 0.2357 0.1220 (  3692 PWs)   bands (ev):

   -52.0208 -52.0208 -51.9971 -51.9971 -51.9312 -51.9312 -51.9202 -51.9202
   -23.0001 -23.0001 -22.9902 -22.9902 -16.8530 -16.8530 -16.7290 -16.7290
   -16.6897 -16.6897 -16.6064 -16.6064 -16.5471 -16.5471 -16.4792 -16.4792
   -16.4078 -16.4078 -16.3633 -16.3633 -16.3130 -16.3130 -16.2650 -16.2650
   -16.2435 -16.2435 -16.2179 -16.2179   3.6180   3.6180   3.6635   3.6635
     3.7825   3.7825   3.7936   3.7936   4.0218   4.0218   4.0455   4.0455
    24.0161  24.0161  24.3931  24.3931  24.4950  24.4950  24.8325  24.8325
    24.9473  24.9473  25.1070  25.1070  25.3076  25.3076  25.6033  25.6033
    25.7797  25.7797  25.9680  25.9680  26.1331  26.1331  26.3565  26.3565
    26.4402  26.4402  26.6892  26.6892  26.9535  26.9535  27.1216  27.1216
    27.5939  27.5939  27.8553  27.8553  28.3403  28.3403  28.6994  28.6994
    30.3444  30.3444  31.2198  31.2198  32.8246  32.8246  33.6037  33.6037
    34.2903  34.2903  34.6050  34.6050  35.2117  35.2117  35.9115  35.9115
    36.1663  36.1663  36.5754  36.5754  36.7428  36.7428  37.1214  37.1214
    39.1916  39.1916  39.5522  39.5522  40.4717  40.4717  42.0426  42.0426
    44.8480  44.8480  45.3761  45.3761  46.6265  46.6265  47.0257  47.0257
    47.4913  47.4913  48.3264  48.3264  48.6447  48.6447  49.3587  49.3588
    49.4126  49.4126  49.7446  49.7446  50.5926  50.5925

          k =-0.4608 0.2357-0.2440 (  3704 PWs)   bands (ev):

   -52.0344 -52.0344 -52.0009 -52.0009 -51.9415 -51.9415 -51.9292 -51.9292
   -23.0002 -23.0002 -22.9937 -22.9937 -16.8594 -16.8594 -16.7386 -16.7386
   -16.6827 -16.6827 -16.6304 -16.6304 -16.5619 -16.5619 -16.4981 -16.4981
   -16.3733 -16.3733 -16.3449 -16.3449 -16.3216 -16.3216 -16.3045 -16.3045
   -16.2293 -16.2293 -16.2257 -16.2257   3.6123   3.6123   3.6699   3.6699
     3.7772   3.7772   3.7843   3.7843   4.0204   4.0204   4.0370   4.0370
    23.9390  23.9390  24.4520  24.4520  24.6387  24.6387  24.8618  24.8618
    24.9030  24.9030  25.1321  25.1321  25.1575  25.1575  25.7463  25.7463
    25.7490  25.7490  25.9770  25.9770  25.9995  25.9995  26.5535  26.5535
    26.5829  26.5829  26.7217  26.7217  26.9091  26.9091  27.0628  27.0628
    27.4595  27.4595  28.0455  28.0455  28.1457  28.1457  28.6555  28.6555
    30.4062  30.4062  30.6797  30.6797  32.8881  32.8881  33.6381  33.6381
    34.5465  34.5465  34.6251  34.6251  35.1370  35.1370  35.6742  35.6742
    36.3765  36.3765  36.5111  36.5111  37.0178  37.0178  37.0583  37.0583
    39.2891  39.2891  39.5982  39.5982  40.3415  40.3415  43.0749  43.0749
    44.0604  44.0604  45.4620  45.4620  46.1470  46.1470  46.9378  46.9378
    47.0115  47.0115  48.6146  48.6146  49.2291  49.2291  49.2912  49.2911
    49.4672  49.4672  49.7039  49.7039  50.0790  50.0791

     the Fermi energy is    42.5284 ev

!    total energy              =   -3040.46125692 Ry
     Harris-Foulkes estimate   =   -3040.46132314 Ry
     estimated scf accuracy    <       0.00007939 Ry

     The total energy is the sum of the following terms:

     one-electron contribution =     -73.86240212 Ry
     hartree contribution      =     319.47557526 Ry
     xc contribution           =    -289.22265331 Ry
     ewald contribution        =   -2996.67355610 Ry
     smearing contrib. (-TS)   =      -0.17822065 Ry

     convergence has been achieved in   6 iterations

     Forces acting on atoms (Ry/au):

     atom    1 type  1   force =     0.00000000   -0.03697518   -0.05267801
     atom    2 type  1   force =     0.00000000    0.03697518    0.05267801
     atom    3 type  1   force =     0.00000000   -0.03697518    0.05267801
     atom    4 type  1   force =     0.00000000    0.03697518   -0.05267801
     atom    5 type  1   force =     0.00000000    0.10780112   -0.12645519
     atom    6 type  1   force =     0.00000000   -0.10780112    0.12645519
     atom    7 type  1   force =     0.00000000    0.10780112    0.12645519
     atom    8 type  1   force =     0.00000000   -0.10780112   -0.12645519
     atom    9 type  2   force =     0.00000000   -0.09536128   -0.03709004
     atom   10 type  2   force =     0.00000000    0.09536128    0.03709004
     atom   11 type  2   force =     0.00000000   -0.09536128    0.03709004
     atom   12 type  2   force =     0.00000000    0.09536128   -0.03709004

     Total force =     0.410968     Total SCF correction =     0.000000


     entering subroutine stress ...

          total   stress  (Ry/bohr**3)                   (kbar)     P= 2161.27
   0.01546595   0.00000000   0.00000000       2275.12      0.00      0.00
   0.00000000   0.01358681   0.00000000          0.00   1998.69      0.00
   0.00000000   0.00000000   0.01502327          0.00      0.00   2210.00


     number of scf cycles    =   2
     number of bfgs steps    =   1

     enthalpy old            =   -3033.7468970981 Ry
     enthalpy new            =   -3040.4612569240 Ry

     CASE: enthalpy_new < enthalpy_old

     small trust_radius: resetting bfgs history

     new trust radius        =       2.5483284004 bohr
     new conv_thr            =       0.0001000000 Ry

     new unit-cell volume =   2775.03421 a.u.^3 (   411.21764 Ang^3 )

CELL_PARAMETERS (alat=  7.01510508)
   1.504703380   0.000000000   0.000000000
   0.000000000   1.894962822   0.000000000
   0.000000000   0.000000000   2.819124190

ATOMIC_POSITIONS (crystal)
Co       0.750000000   0.822036417   0.431735950
Co       0.250000000   0.177963583   0.568264050
Co       0.750000000   0.322036417   0.068264050
Co       0.250000000   0.677963583   0.931735950
Co       0.250000000   0.548988561   0.272737320
Co       0.750000000   0.451011439   0.727262680
Co       0.250000000   0.048988561   0.227262680
Co       0.750000000   0.951011439   0.772737320
Si       0.250000000   0.191947077   0.890915592
Si       0.750000000   0.808052923   0.109084408
Si       0.250000000   0.691947077   0.609084408
Si       0.750000000   0.308052923   0.390915592



     Writing output data file Prototype-La-oP12-Co2Si.save
     NEW-OLD atomic charge density approx. for the potential
     NEW k-points:
        k(    1) = (   0.0000000   0.0000000   0.0000000), wk =   0.0833333
        k(    2) = (   0.0000000   0.0000000   0.0886800), wk =   0.1666667
        k(    3) = (   0.0000000   0.0000000  -0.1773600), wk =   0.0833333
        k(    4) = (   0.0000000   0.1759049   0.0000000), wk =   0.1666667
        k(    5) = (   0.0000000   0.1759049   0.0886800), wk =   0.3333333
        k(    6) = (   0.0000000   0.1759049  -0.1773600), wk =   0.1666667
        k(    7) = (  -0.3322914   0.0000000   0.0000000), wk =   0.0833333
        k(    8) = (  -0.3322914   0.0000000   0.0886800), wk =   0.1666667
        k(    9) = (  -0.3322914   0.0000000  -0.1773600), wk =   0.0833333
        k(   10) = (  -0.3322914   0.1759049   0.0000000), wk =   0.1666667
        k(   11) = (  -0.3322914   0.1759049   0.0886800), wk =   0.3333333
        k(   12) = (  -0.3322914   0.1759049  -0.1773600), wk =   0.1666667

     total cpu time spent up to now is      375.2 secs

     Self-consistent Calculation

     iteration #  1     ecut=    40.00 Ry     beta=0.70
     CG style diagonalization
     c_bands:  4 eigenvalues not converged
     c_bands:  5 eigenvalues not converged
     c_bands:  5 eigenvalues not converged
     c_bands:  2 eigenvalues not converged
     ethr =  1.00E-06,  avg # of iterations = 31.2

     total cpu time spent up to now is      479.6 secs

     total energy              =   -2907.93011534 Ry
     Harris-Foulkes estimate   =   -3269.05781782 Ry
     estimated scf accuracy    <     459.75402347 Ry

     iteration #  2     ecut=    40.00 Ry     beta=0.70
     CG style diagonalization
     ethr =  1.00E-02,  avg # of iterations =  5.6

     total cpu time spent up to now is      498.1 secs

     total energy              =   -2985.97473663 Ry
     Harris-Foulkes estimate   =   -3046.31179210 Ry
     estimated scf accuracy    <      87.09083694 Ry

     iteration #  3     ecut=    40.00 Ry     beta=0.70
     CG style diagonalization
     ethr =  1.00E-02,  avg # of iterations =  5.4

     total cpu time spent up to now is      516.5 secs

     total energy              =   -3018.79275371 Ry
     Harris-Foulkes estimate   =   -3043.28549613 Ry
     estimated scf accuracy    <      56.91440653 Ry

     iteration #  4     ecut=    40.00 Ry     beta=0.70
     CG style diagonalization
     ethr =  1.00E-02,  avg # of iterations =  3.4

     total cpu time spent up to now is      527.8 secs

     total energy              =   -3023.31309684 Ry
     Harris-Foulkes estimate   =   -3024.93724382 Ry
     estimated scf accuracy    <       7.14276463 Ry

     iteration #  5     ecut=    40.00 Ry     beta=0.70
     CG style diagonalization
     ethr =  3.03E-03,  avg # of iterations =  3.0

     total cpu time spent up to now is      537.6 secs

     total energy              =   -3023.04272174 Ry
     Harris-Foulkes estimate   =   -3023.70938921 Ry
     estimated scf accuracy    <       2.47424289 Ry

     iteration #  6     ecut=    40.00 Ry     beta=0.70
     CG style diagonalization
     ethr =  1.05E-03,  avg # of iterations =  3.2

     total cpu time spent up to now is      548.4 secs

     total energy              =   -3023.22339245 Ry
     Harris-Foulkes estimate   =   -3023.27255020 Ry
     estimated scf accuracy    <       0.20943598 Ry

     iteration #  7     ecut=    40.00 Ry     beta=0.70
     CG style diagonalization
     c_bands:  2 eigenvalues not converged
     ethr =  8.87E-05,  avg # of iterations =  3.8

     total cpu time spent up to now is      561.5 secs

     total energy              =   -3023.21341603 Ry
     Harris-Foulkes estimate   =   -3023.25177418 Ry
     estimated scf accuracy    <       0.10855440 Ry

     iteration #  8     ecut=    40.00 Ry     beta=0.70
     CG style diagonalization
     ethr =  4.60E-05,  avg # of iterations =  3.2

     total cpu time spent up to now is      572.2 secs

     total energy              =   -3023.23256491 Ry
     Harris-Foulkes estimate   =   -3023.23426187 Ry
     estimated scf accuracy    <       0.00677236 Ry

     iteration #  9     ecut=    40.00 Ry     beta=0.70
     CG style diagonalization
     c_bands:  1 eigenvalues not converged
     c_bands:  1 eigenvalues not converged
     c_bands:  2 eigenvalues not converged
     ethr =  2.87E-06,  avg # of iterations =  3.5

     total cpu time spent up to now is      583.3 secs

     total energy              =   -3023.23148616 Ry
     Harris-Foulkes estimate   =   -3023.23325839 Ry
     estimated scf accuracy    <       0.00561739 Ry

     iteration # 10     ecut=    40.00 Ry     beta=0.70
     CG style diagonalization
     ethr =  2.38E-06,  avg # of iterations =  3.0

     total cpu time spent up to now is      593.6 secs

     total energy              =   -3023.23214945 Ry
     Harris-Foulkes estimate   =   -3023.23221964 Ry
     estimated scf accuracy    <       0.00015719 Ry

     iteration # 11     ecut=    40.00 Ry     beta=0.70
     CG style diagonalization
     ethr =  6.66E-08,  avg # of iterations =  3.9

     total cpu time spent up to now is      607.4 secs

     total energy              =   -3023.23221502 Ry
     Harris-Foulkes estimate   =   -3023.23229302 Ry
     estimated scf accuracy    <       0.00030429 Ry

     iteration # 12     ecut=    40.00 Ry     beta=0.70
     CG style diagonalization
     ethr =  6.66E-08,  avg # of iterations =  3.1

     total cpu time spent up to now is      617.3 secs

     End of self-consistent calculation

          k = 0.0000 0.0000 0.0000 (  3675 PWs)   bands (ev):

   -74.0221 -73.9884 -73.9219 -73.8564 -73.7896 -73.7103 -73.7082 -73.6498
   -45.5523 -45.5231 -45.5069 -45.4903 -43.9087 -43.9082 -43.8952 -43.8934
   -43.8562 -43.8485 -43.8473 -43.8467 -43.8138 -43.8126 -43.8062 -43.8057
   -43.7855 -43.7802 -43.7786 -43.7755 -43.7531 -43.7485 -43.7473 -43.7430
   -43.7422 -43.7386 -43.7338 -43.7289 -20.1771 -20.1687 -20.1670 -20.1655
   -20.1649 -20.1592 -20.1575 -20.1558 -20.1413 -20.1410 -20.1406 -20.1310
     1.3630   1.4456   1.6609   1.7231   1.7703   1.7836   1.8015   1.8554
     1.8613   1.8681   1.8697   1.8922   1.9124   1.9193   1.9209   1.9480
     1.9677   1.9879   1.9947   2.0259   2.0279   2.0467   2.0634   2.0676
     2.0795   2.0863   2.0996   2.1218   2.1264   2.1543   2.1880   2.2111
     2.2128   2.2182   2.2457   2.2737   2.2834   2.3343   2.3678   2.3717
     6.1148   7.4172   7.7915   8.6487   9.5251   9.7256  10.1066  10.4317
    10.5580  10.5717  10.7395  11.0103  11.1549  11.1776  11.2623  11.3274
    11.4121  11.5211  11.5373  11.6089  11.6730  11.7900  11.8187  11.8741
    12.0083  12.2114  12.2444  12.7147  12.7228  13.0386  13.2165  13.8663
    14.0103  14.8271  14.8668  14.9148  14.9483  15.4570  15.6360  15.9828
    16.0480  16.4383  16.7437  16.9635  17.0968  17.1992  17.2419  17.4258
    17.8189  18.2101  18.3701  18.6365  18.7024  19.0201

          k = 0.0000 0.0000 0.0887 (  3675 PWs)   bands (ev):

   -74.0428 -74.0154 -73.9667 -73.7887 -73.7612 -73.7360 -73.6837 -73.6591
   -45.5696 -45.5430 -45.5051 -45.4506 -43.9097 -43.9067 -43.8957 -43.8942
   -43.8531 -43.8513 -43.8487 -43.8437 -43.8131 -43.8107 -43.8068 -43.8024
   -43.7850 -43.7818 -43.7777 -43.7764 -43.7525 -43.7485 -43.7460 -43.7439
   -43.7414 -43.7357 -43.7334 -43.7284 -20.1759 -20.1674 -20.1671 -20.1655
   -20.1633 -20.1623 -20.1566 -20.1552 -20.1552 -20.1436 -20.1347 -20.1291
     1.3776   1.3983   1.6344   1.7453   1.7552   1.7628   1.7906   1.8573
     1.8897   1.8960   1.9085   1.9200   1.9253   1.9266   1.9507   1.9515
     1.9631   1.9631   1.9814   1.9858   2.0111   2.0141   2.0256   2.0444
     2.0462   2.0625   2.0822   2.1181   2.1497   2.1804   2.1872   2.2059
     2.2480   2.2498   2.2526   2.2977   2.3050   2.3372   2.3728   2.4270
     6.2152   6.9588   8.3016   8.7071   9.4066   9.8103   9.8989  10.0501
    10.5867  10.7779  10.8416  11.0634  11.1003  11.1648  11.2155  11.3276
    11.3799  11.5204  11.6194  11.6382  11.7240  11.7396  11.8447  11.8814
    12.1790  12.2548  12.4609  12.7267  12.7301  13.1501  13.2623  13.7145
    13.9279  13.9675  14.3917  15.1672  15.3736  15.7269  15.8442  15.9633
    16.0931  16.4502  16.5357  16.9574  17.1185  17.1703  17.2948  17.3507
    17.5254  17.9953  18.1380  18.4032  19.2236  19.3314

          k = 0.0000 0.0000-0.1774 (  3690 PWs)   bands (ev):

   -74.0637 -74.0637 -73.9333 -73.9333 -73.7791 -73.7791 -73.6972 -73.6972
   -45.5638 -45.5638 -45.5246 -45.5246 -43.9093 -43.9093 -43.8959 -43.8959
   -43.8501 -43.8501 -43.8480 -43.8480 -43.8090 -43.8090 -43.8040 -43.8040
   -43.7850 -43.7850 -43.7774 -43.7774 -43.7509 -43.7509 -43.7449 -43.7449
   -43.7361 -43.7361 -43.7301 -43.7301 -20.1798 -20.1798 -20.1668 -20.1668
   -20.1620 -20.1620 -20.1591 -20.1591 -20.1558 -20.1558 -20.1390 -20.1390
     1.3895   1.3895   1.6390   1.6390   1.7546   1.7546   1.7630   1.7630
     1.8553   1.8553   1.8769   1.8769   1.8882   1.8882   1.9114   1.9114
     1.9121   1.9121   1.9842   1.9842   2.0121   2.0121   2.0426   2.0426
     2.0873   2.0873   2.1515   2.1515   2.1825   2.1825   2.1992   2.1992
     2.2521   2.2521   2.2626   2.2626   2.2654   2.2654   2.4249   2.4249
     6.4942   6.4942   8.7544   8.7544   9.3891   9.3891   9.9037   9.9037
    10.7498  10.7498  10.9064  10.9064  11.2058  11.2058  11.2771  11.2771
    11.3239  11.3239  11.7315  11.7315  11.7511  11.7511  12.0426  12.0426
    12.0578  12.0578  12.7392  12.7392  13.1571  13.1571  13.3332  13.3332
    13.6456  13.6456  14.7497  14.7497  15.2028  15.2028  16.3074  16.3074
    16.3398  16.3398  16.9187  16.9187  16.9963  16.9963  17.3758  17.3758
    17.5168  17.5168  18.0894  18.0894  19.6967  19.6969

          k = 0.0000 0.1759 0.0000 (  3664 PWs)   bands (ev):

   -74.0115 -73.9538 -73.9446 -73.8298 -73.7234 -73.7172 -73.6583 -73.6056
   -45.5804 -45.5510 -45.4232 -45.4206 -43.9060 -43.9032 -43.8975 -43.8963
   -43.8532 -43.8530 -43.8437 -43.8419 -43.8105 -43.8091 -43.8064 -43.8041
   -43.7824 -43.7814 -43.7774 -43.7767 -43.7526 -43.7496 -43.7424 -43.7413
   -43.7412 -43.7369 -43.7298 -43.7271 -20.1722 -20.1673 -20.1668 -20.1657
   -20.1608 -20.1586 -20.1574 -20.1536 -20.1458 -20.1448 -20.1288 -20.1276
     1.4989   1.5604   1.7160   1.7317   1.7399   1.8070   1.8152   1.8312
     1.8589   1.8660   1.8675   1.9019   1.9233   1.9261   1.9435   1.9657
     1.9724   1.9920   1.9981   1.9981   2.0077   2.0340   2.0412   2.0865
     2.0963   2.1017   2.1167   2.1189   2.1429   2.1558   2.1839   2.2064
     2.2151   2.2783   2.2791   2.2796   2.2849   2.2979   2.4241   2.4391
     6.4953   7.5089   7.7767   8.2846   8.8381   9.1134  10.2556  10.5951
    10.6482  10.6598  10.7667  10.9218  11.0967  11.1410  11.2317  11.3080
    11.4307  11.4872  11.5299  11.5313  11.5497  11.5986  11.6955  11.7924
    12.0998  12.1995  12.3493  12.7180  13.0715  13.7251  13.7856  14.1570
    14.6410  14.7447  14.9402  14.9765  15.1672  15.1890  15.2557  15.8290
    16.0842  16.1821  16.3412  16.4787  16.7220  17.1799  17.7461  17.9892
    18.2383  18.4264  18.6992  18.8524  19.1650  19.1750

          k = 0.0000 0.1759 0.0887 (  3669 PWs)   bands (ev):

   -74.0536 -73.9569 -73.9261 -73.8256 -73.7708 -73.7278 -73.6661 -73.6222
   -45.5634 -45.5488 -45.4750 -45.4338 -43.9054 -43.9050 -43.8987 -43.8967
   -43.8519 -43.8506 -43.8484 -43.8448 -43.8102 -43.8074 -43.8046 -43.8041
   -43.7831 -43.7829 -43.7784 -43.7770 -43.7519 -43.7484 -43.7467 -43.7430
   -43.7406 -43.7378 -43.7284 -43.7252 -20.1762 -20.1702 -20.1667 -20.1662
   -20.1622 -20.1602 -20.1543 -20.1529 -20.1487 -20.1460 -20.1331 -20.1277
     1.5206   1.5465   1.7171   1.7214   1.7620   1.7916   1.8031   1.8200
     1.8310   1.8553   1.8640   1.8766   1.9264   1.9375   1.9378   1.9485
     1.9690   1.9765   1.9769   2.0009   2.0230   2.0241   2.0439   2.0502
     2.0786   2.0875   2.1241   2.1271   2.1282   2.1597   2.1780   2.1861
     2.2006   2.2350   2.2447   2.3002   2.3119   2.3293   2.4158   2.4427
     6.5905   7.3004   7.6938   8.3736   8.7909   9.4973  10.0814  10.3573
    10.6893  10.7487  10.7709  10.8700  11.0737  11.1873  11.2012  11.3268
    11.4421  11.4534  11.5198  11.5251  11.6272  11.7047  11.7693  11.8224
    12.1194  12.2938  12.4235  12.7463  13.2373  13.4811  13.7275  14.0486
    14.1461  14.3794  14.5931  14.7680  14.9738  15.6105  15.7518  15.9858
    16.1618  16.4425  16.7324  16.8836  17.0235  17.1309  17.4159  17.7335
    17.9431  18.1785  18.6042  18.6048  18.8877  19.1951

          k = 0.0000 0.1759-0.1774 (  3666 PWs)   bands (ev):

   -73.9481 -73.9481 -73.8512 -73.8512 -73.7785 -73.7785 -73.6653 -73.6653
   -45.5194 -45.5194 -45.4800 -45.4800 -43.9054 -43.9054 -43.8971 -43.8971
   -43.8503 -43.8503 -43.8482 -43.8482 -43.8092 -43.8092 -43.8044 -43.8044
   -43.7826 -43.7826 -43.7773 -43.7773 -43.7488 -43.7488 -43.7466 -43.7466
   -43.7391 -43.7391 -43.7279 -43.7279 -20.1707 -20.1707 -20.1655 -20.1655
   -20.1605 -20.1605 -20.1556 -20.1556 -20.1436 -20.1436 -20.1316 -20.1316
     1.5205   1.5205   1.7389   1.7389   1.7730   1.7730   1.8082   1.8082
     1.8879   1.8879   1.9002   1.9002   1.9042   1.9042   1.9243   1.9243
     1.9648   1.9648   2.0062   2.0062   2.0125   2.0125   2.0556   2.0556
     2.0697   2.0697   2.1372   2.1372   2.1551   2.1551   2.2058   2.2058
     2.2086   2.2086   2.2663   2.2663   2.3367   2.3367   2.4224   2.4224
     6.8724   6.8724   7.9542   7.9542   9.3980   9.3980  10.0677  10.0677
    10.7514  10.7514  10.8161  10.8161  11.0712  11.0712  11.2932  11.2932
    11.4714  11.4714  11.5227  11.5227  11.7324  11.7324  11.8419  11.8419
    12.2906  12.2906  12.6759  12.6759  13.2353  13.2353  13.6987  13.6987
    14.0275  14.0275  14.7654  14.7654  15.1105  15.1105  15.9197  15.9197
    16.7449  16.7449  16.9771  16.9771  17.2053  17.2053  17.5630  17.5630
    17.9757  17.9757  18.2104  18.2104  18.9930  18.9930

          k =-0.3323 0.0000 0.0000 (  3722 PWs)   bands (ev):

   -74.0465 -74.0465 -73.9811 -73.9811 -73.9213 -73.9213 -73.8498 -73.8498
   -45.6271 -45.6271 -45.6175 -45.6175 -43.9109 -43.9109 -43.8928 -43.8928
   -43.8541 -43.8541 -43.8511 -43.8511 -43.8186 -43.8186 -43.8177 -43.8177
   -43.7817 -43.7817 -43.7796 -43.7796 -43.7536 -43.7536 -43.7502 -43.7502
   -43.7452 -43.7452 -43.7436 -43.7436 -20.1798 -20.1798 -20.1775 -20.1775
   -20.1728 -20.1728 -20.1697 -20.1697 -20.1474 -20.1474 -20.1434 -20.1434
     1.3590   1.3590   1.6454   1.6454   1.6570   1.6570   1.7676   1.7676
     1.8421   1.8421   1.8421   1.8421   1.8776   1.8776   1.9059   1.9059
     1.9392   1.9392   1.9698   1.9698   2.0003   2.0003   2.0003   2.0003
     2.0368   2.0368   2.0457   2.0457   2.0987   2.0987   2.1286   2.1286
     2.1665   2.1665   2.1782   2.1782   2.2124   2.2124   2.2579   2.2579
     7.3943   7.3943   8.6845   8.6845   8.7545   8.7545   9.9884   9.9884
    10.6040  10.6040  10.9746  10.9746  11.1466  11.1466  11.3127  11.3127
    11.4010  11.4010  11.4572  11.4572  11.6852  11.6852  11.7631  11.7631
    11.9056  11.9056  11.9444  11.9444  13.0178  13.0178  13.6050  13.6050
    13.9301  13.9301  14.0947  14.0947  14.2484  14.2484  15.3305  15.3305
    15.8804  15.8804  17.4091  17.4091  17.5223  17.5223  18.5707  18.5707
    18.9649  18.9649  19.8349  19.8349  20.0076  20.0077

          k =-0.3323 0.0000 0.0887 (  3710 PWs)   bands (ev):

   -74.0008 -74.0008 -73.9664 -73.9664 -73.9082 -73.9082 -73.8029 -73.8029
   -45.6001 -45.6001 -45.5927 -45.5927 -43.9100 -43.9100 -43.8932 -43.8932
   -43.8525 -43.8525 -43.8485 -43.8485 -43.8184 -43.8184 -43.8143 -43.8143
   -43.7809 -43.7809 -43.7797 -43.7797 -43.7508 -43.7508 -43.7483 -43.7483
   -43.7439 -43.7439 -43.7420 -43.7420 -20.1768 -20.1768 -20.1730 -20.1730
   -20.1707 -20.1707 -20.1661 -20.1661 -20.1480 -20.1480 -20.1439 -20.1439
     1.3784   1.3784   1.6351   1.6351   1.7096   1.7096   1.7839   1.7839
     1.8607   1.8607   1.8656   1.8656   1.9086   1.9086   1.9189   1.9189
     1.9555   1.9555   1.9763   1.9763   1.9973   1.9973   2.0237   2.0237
     2.0397   2.0397   2.0710   2.0710   2.1031   2.1031   2.1509   2.1509
     2.1691   2.1691   2.2129   2.2129   2.2231   2.2231   2.2516   2.2516
     7.4568   7.4568   8.3033   8.3033   9.0464   9.0464   9.9563   9.9563
    10.7281  10.7281  11.0441  11.0441  11.2241  11.2241  11.2703  11.2703
    11.4033  11.4033  11.4728  11.4728  11.6173  11.6173  11.7463  11.7463
    11.8335  11.8335  12.2088  12.2088  13.0061  13.0061  13.2400  13.2400
    13.7077  13.7077  14.2577  14.2577  14.4308  14.4308  15.0227  15.0227
    16.3541  16.3541  17.0448  17.0448  17.3276  17.3276  19.1575  19.1575
    19.3520  19.3520  19.6932  19.6932  20.0351  20.0351

          k =-0.3323 0.0000-0.1774 (  3680 PWs)   bands (ev):

   -73.9771 -73.9771 -73.8477 -73.8477 -73.8054 -73.8054 -73.7520 -73.7520
   -45.5548 -45.5548 -45.5104 -45.5104 -43.9106 -43.9106 -43.8917 -43.8917
   -43.8485 -43.8485 -43.8455 -43.8455 -43.8164 -43.8164 -43.8105 -43.8105
   -43.7799 -43.7799 -43.7790 -43.7790 -43.7484 -43.7484 -43.7438 -43.7438
   -43.7396 -43.7396 -43.7390 -43.7390 -20.1683 -20.1683 -20.1682 -20.1682
   -20.1646 -20.1646 -20.1641 -20.1641 -20.1444 -20.1444 -20.1335 -20.1335
     1.4092   1.4092   1.6418   1.6418   1.7114   1.7114   1.8121   1.8121
     1.8571   1.8571   1.8970   1.8970   1.9460   1.9460   1.9498   1.9498
     1.9997   1.9997   2.0119   2.0119   2.0137   2.0137   2.0487   2.0487
     2.0781   2.0781   2.0863   2.0863   2.1614   2.1614   2.2315   2.2315
     2.2556   2.2556   2.2630   2.2630   2.2886   2.2886   2.2906   2.2906
     7.5609   7.5609   8.0742   8.0742   9.1678   9.1678   9.9091   9.9091
    10.8480  10.8480  11.0939  11.0939  11.2548  11.2548  11.3998  11.3998
    11.4025  11.4025  11.4468  11.4468  11.6002  11.6002  11.7322  11.7322
    11.8337  11.8337  12.5505  12.5505  12.6364  12.6364  13.0980  13.0980
    13.4471  13.4471  14.1103  14.1103  14.9900  14.9900  15.3190  15.3190
    15.5068  15.5068  16.9069  16.9069  18.3623  18.3623  18.5808  18.5808
    19.7327  19.7327  19.7387  19.7387  20.0247  20.0247

          k =-0.3323 0.1759 0.0000 (  3686 PWs)   bands (ev):

   -73.9253 -73.9253 -73.9220 -73.9220 -73.8335 -73.8335 -73.7752 -73.7752
   -45.5766 -45.5766 -45.5302 -45.5302 -43.9056 -43.9056 -43.8968 -43.8968
   -43.8495 -43.8495 -43.8494 -43.8494 -43.8197 -43.8197 -43.8154 -43.8154
   -43.7805 -43.7805 -43.7795 -43.7795 -43.7497 -43.7497 -43.7473 -43.7473
   -43.7451 -43.7451 -43.7429 -43.7429 -20.1772 -20.1772 -20.1694 -20.1694
   -20.1630 -20.1630 -20.1600 -20.1600 -20.1375 -20.1375 -20.1328 -20.1328
     1.5129   1.5129   1.7124   1.7124   1.7813   1.7813   1.7974   1.7974
     1.8647   1.8647   1.8970   1.8970   1.9112   1.9112   1.9230   1.9230
     1.9556   1.9556   1.9719   1.9719   2.0078   2.0078   2.0171   2.0171
     2.0734   2.0734   2.0788   2.0788   2.1056   2.1056   2.1272   2.1272
     2.1621   2.1621   2.1877   2.1877   2.2648   2.2648   2.2672   2.2672
     7.7242   7.7242   8.5597   8.5597   8.9843   8.9843   9.2921   9.2921
    10.6153  10.6153  10.6280  10.6280  11.1077  11.1077  11.2665  11.2665
    11.4065  11.4065  11.5040  11.5040  11.5429  11.5429  11.6353  11.6353
    11.9071  11.9071  12.0474  12.0474  12.6675  12.6675  12.8668  12.8668
    14.4892  14.4892  15.0725  15.0725  15.6070  15.6070  16.3538  16.3538
    16.4906  16.4906  16.9030  16.9030  17.0019  17.0019  18.1449  18.1450
    19.3172  19.3173  19.4111  19.4114  19.9441  19.9495

          k =-0.3323 0.1759 0.0887 (  3692 PWs)   bands (ev):

   -73.9533 -73.9533 -73.9119 -73.9119 -73.8292 -73.8292 -73.8163 -73.8163
   -45.6009 -45.6009 -45.5257 -45.5257 -43.9065 -43.9065 -43.8977 -43.8977
   -43.8498 -43.8498 -43.8488 -43.8488 -43.8170 -43.8170 -43.8133 -43.8133
   -43.7814 -43.7814 -43.7803 -43.7803 -43.7489 -43.7489 -43.7477 -43.7477
   -43.7434 -43.7434 -43.7401 -43.7401 -20.1752 -20.1752 -20.1723 -20.1723
   -20.1678 -20.1678 -20.1616 -20.1616 -20.1423 -20.1423 -20.1320 -20.1320
     1.5210   1.5210   1.7031   1.7031   1.7441   1.7441   1.7905   1.7905
     1.8483   1.8483   1.8931   1.8931   1.9047   1.9047   1.9355   1.9355
     1.9493   1.9493   1.9707   1.9707   1.9799   1.9799   2.0213   2.0213
     2.0527   2.0527   2.0847   2.0847   2.1139   2.1139   2.1396   2.1396
     2.1633   2.1633   2.2060   2.2060   2.2486   2.2486   2.2899   2.2899
     7.7743   7.7743   8.4961   8.4961   8.8837   8.8837   9.2434   9.2434
    10.6831  10.6831  10.8485  10.8485  11.1060  11.1060  11.2731  11.2731
    11.3669  11.3669  11.4833  11.4833  11.5352  11.5352  11.6246  11.6246
    11.9793  11.9793  12.1205  12.1205  12.6203  12.6203  13.1020  13.1020
    14.1690  14.1690  14.4755  14.4755  15.3323  15.3323  16.1752  16.1752
    16.7480  16.7480  17.4202  17.4202  17.8455  17.8455  18.3011  18.3011
    18.9519  18.9519  19.2305  19.2305  19.8115  19.8115

          k =-0.3323 0.1759-0.1774 (  3704 PWs)   bands (ev):

   -73.9696 -73.9696 -73.9604 -73.9604 -73.8704 -73.8704 -73.8292 -73.8292
   -45.6380 -45.6380 -45.5358 -45.5358 -43.9070 -43.9070 -43.8994 -43.8994
   -43.8486 -43.8486 -43.8470 -43.8470 -43.8176 -43.8176 -43.8139 -43.8139
   -43.7821 -43.7821 -43.7818 -43.7818 -43.7488 -43.7488 -43.7449 -43.7449
   -43.7421 -43.7421 -43.7421 -43.7421 -20.1785 -20.1785 -20.1781 -20.1781
   -20.1691 -20.1691 -20.1663 -20.1663 -20.1405 -20.1405 -20.1386 -20.1386
     1.5122   1.5122   1.6917   1.6917   1.7416   1.7416   1.7632   1.7632
     1.8041   1.8041   1.8891   1.8891   1.8941   1.8941   1.9138   1.9138
     1.9324   1.9324   1.9482   1.9482   1.9645   1.9645   2.0232   2.0232
     2.0312   2.0312   2.0686   2.0686   2.0768   2.0768   2.1282   2.1282
     2.1825   2.1825   2.2100   2.2100   2.2850   2.2850   2.2873   2.2873
     7.8523   7.8523   8.3658   8.3658   8.9180   8.9180   9.1108   9.1108
    10.8657  10.8657  10.9457  10.9457  11.0996  11.0996  11.2833  11.2833
    11.3797  11.3797  11.4078  11.4078  11.5341  11.5341  11.6071  11.6071
    12.1073  12.1073  12.1488  12.1488  12.6615  12.6615  13.3489  13.3489
    13.7164  13.7164  14.1897  14.1897  14.9229  14.9229  16.0553  16.0553
    17.4541  17.4541  17.6246  17.6246  18.2965  18.2965  18.4110  18.4110
    18.9938  18.9938  19.3315  19.3315  19.8861  19.8861

     the Fermi energy is    13.3188 ev

!    total energy              =   -3023.23219657 Ry
     Harris-Foulkes estimate   =   -3023.23223487 Ry
     estimated scf accuracy    <       0.00003103 Ry

     The total energy is the sum of the following terms:

     one-electron contribution =   -1229.81232360 Ry
     hartree contribution      =     670.91633047 Ry
     xc contribution           =    -271.42981226 Ry
     ewald contribution        =   -2192.30820047 Ry
     smearing contrib. (-TS)   =      -0.59819072 Ry

     convergence has been achieved in  12 iterations

     Forces acting on atoms (Ry/au):

     atom    1 type  1   force =     0.00000000   -0.00777826   -0.00657935
     atom    2 type  1   force =     0.00000000    0.00777826    0.00657935
     atom    3 type  1   force =     0.00000000   -0.00777826    0.00657935
     atom    4 type  1   force =     0.00000000    0.00777826   -0.00657935
     atom    5 type  1   force =     0.00000000    0.00228303    0.01386010
     atom    6 type  1   force =     0.00000000   -0.00228303   -0.01386010
     atom    7 type  1   force =     0.00000000    0.00228303   -0.01386010
     atom    8 type  1   force =     0.00000000   -0.00228303    0.01386010
     atom    9 type  2   force =     0.00000000    0.00036453   -0.00730231
     atom   10 type  2   force =     0.00000000   -0.00036453    0.00730231
     atom   11 type  2   force =     0.00000000    0.00036453    0.00730231
     atom   12 type  2   force =     0.00000000   -0.00036453   -0.00730231

     Total force =     0.037660     Total SCF correction =     0.000000


     entering subroutine stress ...

          total   stress  (Ry/bohr**3)                   (kbar)     P=-2520.25
  -0.01817744   0.00000000   0.00000000      -2673.99      0.00      0.00
   0.00000000  -0.01592641   0.00000000          0.00  -2342.86      0.00
   0.00000000   0.00000000  -0.01729299          0.00      0.00  -2543.89


     number of scf cycles    =   3
     number of bfgs steps    =   2

     enthalpy old            =   -3040.4612569239 Ry
     enthalpy new            =   -3023.2321965737 Ry

     CASE: enthalpy_new > enthalpy_old

     new trust radius        =       0.7464527732 bohr

     trust_radius < trust_radius_min

     resetting bfgs history

     Message from routine bfgs:
     history already reset at previous step: stopping
     new conv_thr            =       0.0001000000 Ry

     new unit-cell volume =   1296.62909 a.u.^3 (   192.14061 Ang^3 )

CELL_PARAMETERS (alat=  7.01510508)
   1.156546242   0.000000000   0.000000000
   0.000000000   1.490826503   0.000000000
   0.000000000   0.000000000   2.178327191

ATOMIC_POSITIONS (crystal)
Co       0.750000000   0.825293054   0.434962057
Co       0.250000000   0.174706946   0.565037943
Co       0.750000000   0.325293054   0.065037943
Co       0.250000000   0.674706946   0.934962057
Co       0.250000000   0.539493838   0.280481689
Co       0.750000000   0.460506162   0.719518311
Co       0.250000000   0.039493838   0.219518311
Co       0.750000000   0.960506162   0.780481689
Si       0.250000000   0.200346145   0.893187060
Si       0.750000000   0.799653855   0.106812940
Si       0.250000000   0.700346145   0.606812940
Si       0.750000000   0.299653855   0.393187060



[...]
    20.5359  20.7979  20.8302  20.8389  20.9316  20.9668  21.0547  21.1450
    21.1596  21.3378  21.3900  21.5249  21.9305  22.0308  22.1377  22.2049
    22.2856  23.4699  23.8240  24.2075  26.7812  26.9035  27.2788  27.4928
    27.7421  28.5441  28.7305  28.7473  29.0680  29.2040  29.3821  29.4083
    29.5167  30.0675  30.2837  30.3355  30.6560  30.7593  30.8362  30.9425
    31.1435  32.9330  33.0324  33.2455  33.4482  33.7735  34.6669  36.8701
    36.9556  37.3358  37.5819  37.5943  38.0776  38.0876  38.4665  38.9116
    39.0305  39.2846  39.4583  39.8574  39.9971  40.1914  40.2001  40.2044
    40.5015  40.7498  40.9519  40.9639  41.3678  41.8563

          k = 0.0000 0.0000 0.1148 (  5553 PWs)   bands (ev):

   -58.9995 -58.9948 -58.9687 -58.9598 -58.8407 -58.8370 -58.8355 -58.8320
   -29.5807 -29.5801 -29.5782 -29.5710 -23.4632 -23.4463 -23.2734 -23.2590
   -23.2460 -23.2306 -23.2240 -23.1761 -23.1728 -23.1719 -23.1142 -23.1121
   -23.1056 -23.1027 -23.0938 -23.0777 -23.0673 -23.0524 -23.0524 -23.0325
   -23.0278 -23.0125 -23.0092 -23.0087  -2.7893  -2.7659  -2.7428  -2.7377
    -2.7330  -2.7249  -2.7209  -2.7067  -2.5849  -2.5565  -2.5032  -2.4788
    18.1938  18.2648  18.3168  18.3729  18.4610  18.5091  18.7447  18.7957
    19.0804  19.1874  19.2637  19.4854  19.6754  19.8100  19.8108  19.8862
    20.0262  20.0430  20.1703  20.2340  20.2353  20.2804  20.4200  20.5106
    20.5933  20.6647  20.7452  20.7998  20.9042  20.9141  20.9752  21.0220
    21.2602  21.4038  21.4697  21.6162  21.9217  21.9240  22.0709  22.2350
    22.3009  22.4641  24.4004  24.7625  26.2791  26.5425  27.6334  27.6952
    27.8825  28.4492  28.6433  28.7028  28.8542  29.1377  29.3565  29.4103
    29.4121  29.5241  30.5240  30.6275  30.8040  30.8527  31.0602  31.1155
    32.1744  32.7254  33.1063  33.2439  33.5001  34.0844  34.6594  35.6796
    36.3194  37.1791  37.2458  37.3573  38.1162  38.4983  38.6726  38.8673
    39.1325  39.2269  39.3241  39.4694  39.8852  40.0023  40.2952  40.4802
    40.8761  41.0551  41.1677  41.1971  41.4767  41.5075

          k = 0.0000 0.0000-0.2295 (  5542 PWs)   bands (ev):

   -58.9945 -58.9945 -58.9611 -58.9611 -58.8396 -58.8396 -58.8280 -58.8280
   -29.5807 -29.5807 -29.5736 -29.5736 -23.4524 -23.4524 -23.2605 -23.2605
   -23.2350 -23.2350 -23.2037 -23.2037 -23.1725 -23.1725 -23.1092 -23.1092
   -23.0973 -23.0973 -23.0822 -23.0822 -23.0727 -23.0727 -23.0313 -23.0313
   -23.0183 -23.0183 -23.0036 -23.0036  -2.7770  -2.7770  -2.7370  -2.7370
    -2.7268  -2.7268  -2.7134  -2.7134  -2.5716  -2.5716  -2.4897  -2.4897
    18.2325  18.2325  18.2952  18.2952  18.4091  18.4091  19.0294  19.0294
    19.0685  19.0685  19.4656  19.4656  19.6903  19.6903  19.8612  19.8612
    20.0638  20.0638  20.2037  20.2037  20.2547  20.2547  20.5640  20.5640
    20.6430  20.6430  20.7996  20.7996  20.8344  20.8344  20.9479  20.9479
    21.1815  21.1815  21.6802  21.6802  21.7551  21.7551  22.0535  22.0535
    22.2860  22.2860  24.9474  24.9474  26.0428  26.0428  27.8065  27.8066
    28.3264  28.3264  28.5442  28.5442  28.8603  28.8603  29.1708  29.1708
    29.4673  29.4673  30.7010  30.7010  30.8400  30.8400  31.8734  31.8734
    32.3017  32.3017  33.4914  33.4914  33.9000  33.9000  34.4861  34.4861
    36.5071  36.5072  37.4196  37.4196  37.7691  37.7691  38.6747  38.6748
    39.0295  39.0296  39.4924  39.4924  40.0897  40.0899  40.4485  40.4485
    41.1242  41.1246  41.6223  41.6226  41.6965  41.6968

          k = 0.0000 0.2236 0.0000 (  5513 PWs)   bands (ev):

   -58.9816 -58.9777 -58.9715 -58.9533 -58.8344 -58.8281 -58.8252 -58.8198
   -29.5856 -29.5848 -29.5728 -29.5686 -23.3702 -23.3419 -23.2539 -23.2444
   -23.2408 -23.2228 -23.2150 -23.1987 -23.1909 -23.1776 -23.1768 -23.1540
   -23.0959 -23.0812 -23.0799 -23.0615 -23.0569 -23.0557 -23.0390 -23.0285
   -23.0281 -23.0081 -23.0011 -22.9966  -2.7842  -2.7782  -2.7429  -2.7406
    -2.7263  -2.7248  -2.7177  -2.7123  -2.5900  -2.5762  -2.5047  -2.4813
    18.4668  18.5170  18.5687  18.7159  18.7402  18.8506  18.8932  19.0610
    19.1546  19.1745  19.2382  19.5203  19.5691  19.5836  19.6077  19.7505
    19.8314  20.0178  20.0203  20.1983  20.2823  20.2868  20.4609  20.6600
    20.6687  20.7054  20.8479  20.8612  20.8626  21.0149  21.1082  21.2441
    21.3282  21.3415  21.4435  21.7169  21.7268  21.7384  22.0392  22.2481
    22.3394  23.0681  24.0507  24.1562  25.8019  26.3377  26.9340  27.5177
    27.7235  27.7953  27.9842  28.3475  28.5454  29.1112  29.3319  29.3640
    29.7155  29.7891  30.0845  30.2657  30.3626  30.4701  30.5619  30.7420
    31.3443  31.6850  33.6317  33.7093  34.3249  35.5287  35.8532  36.4137
    36.7816  37.1632  37.3402  37.4714  37.8210  37.9990  38.0760  38.9750
    38.9883  39.0580  39.3756  39.5539  39.8993  39.9899  40.7631  40.8141
    41.1923  41.3168  41.3459  41.8661  42.1391  42.2873

          k = 0.0000 0.2236 0.1148 (  5550 PWs)   bands (ev):

   -58.9928 -58.9871 -58.9770 -58.9659 -58.8432 -58.8362 -58.8343 -58.8292
   -29.5858 -29.5854 -29.5733 -29.5706 -23.3783 -23.3566 -23.2550 -23.2498
   -23.2472 -23.2264 -23.2233 -23.2062 -23.2033 -23.1938 -23.1783 -23.1670
   -23.1003 -23.0997 -23.0887 -23.0741 -23.0682 -23.0582 -23.0457 -23.0388
   -23.0237 -23.0155 -23.0106 -23.0015  -2.7903  -2.7783  -2.7498  -2.7451
    -2.7309  -2.7291  -2.7223  -2.7204  -2.5944  -2.5812  -2.5033  -2.4866
    18.4095  18.4335  18.5385  18.6767  18.7559  18.9073  18.9551  19.0642
    19.2288  19.2712  19.3151  19.4567  19.5164  19.6217  19.6380  19.7294
    19.9724  20.0731  20.1669  20.2622  20.3075  20.3418  20.3871  20.5139
    20.6399  20.6585  20.7646  20.8214  20.8469  20.9815  21.0672  21.2368
    21.3253  21.3828  21.5377  21.6746  21.7144  21.8206  22.0318  22.2582
    22.3271  22.8442  23.3025  24.6217  25.4708  26.5900  27.1778  27.6426
    27.7078  27.7716  28.0023  28.2416  28.4711  28.7995  29.2261  29.4441
    29.7799  29.8675  30.1135  30.2874  30.4845  30.5745  30.6187  30.9715
    31.6231  32.0867  33.7423  33.9310  34.3425  35.3157  35.5582  35.9754
    36.2618  36.5374  36.8357  36.9816  37.7378  38.1351  38.9987  39.1396
    39.2533  39.3407  39.6131  39.6358  39.8597  40.1919  40.4088  40.6941
    40.7991  41.4575  41.5205  41.8893  42.1017  42.1167

          k = 0.0000 0.2236-0.2295 (  5522 PWs)   bands (ev):

   -58.9821 -58.9821 -58.9668 -58.9668 -58.8330 -58.8330 -58.8253 -58.8253
   -29.5842 -29.5842 -29.5721 -29.5721 -23.3641 -23.3641 -23.2464 -23.2464
   -23.2372 -23.2372 -23.1944 -23.1944 -23.1929 -23.1929 -23.1679 -23.1679
   -23.0893 -23.0892 -23.0791 -23.0791 -23.0534 -23.0534 -23.0388 -23.0388
   -23.0173 -23.0173 -23.0053 -23.0053  -2.7830  -2.7830  -2.7391  -2.7391
    -2.7274  -2.7274  -2.7204  -2.7204  -2.5891  -2.5891  -2.4896  -2.4896
    18.3625  18.3625  18.5617  18.5617  18.8718  18.8718  19.0875  19.0875
    19.2211  19.2211  19.4974  19.4974  19.5624  19.5624  19.7009  19.7009
    20.1677  20.1677  20.1898  20.1898  20.2910  20.2911  20.4793  20.4793
    20.5731  20.5731  20.7319  20.7319  20.8913  20.8913  21.1191  21.1191
    21.5291  21.5291  21.6287  21.6287  21.7683  21.7683  22.0453  22.0453
    22.2926  22.2926  23.8247  23.8247  26.0957  26.0957  27.6290  27.6290
    27.9290  27.9290  27.9529  27.9529  28.4258  28.4258  29.3233  29.3233
    30.0122  30.0122  30.0367  30.0367  30.6327  30.6327  30.9267  30.9267
    32.6018  32.6018  33.5225  33.5225  34.8891  34.8891  35.1775  35.1775
    36.1178  36.1178  37.1982  37.1982  37.4669  37.4669  38.9706  38.9706
    39.5069  39.5070  39.9864  39.9864  40.1500  40.1500  40.6953  40.6953
    40.7475  40.7476  41.5548  41.5549  42.4968  42.5982

          k =-0.4323 0.0000 0.0000 (  5532 PWs)   bands (ev):

   -58.9911 -58.9911 -58.9620 -58.9620 -58.8388 -58.8388 -58.8299 -58.8299
   -29.5852 -29.5852 -29.5765 -29.5765 -23.4536 -23.4536 -23.2607 -23.2607
   -23.2422 -23.2422 -23.2086 -23.2086 -23.1782 -23.1782 -23.1146 -23.1146
   -23.0833 -23.0833 -23.0635 -23.0635 -23.0574 -23.0574 -23.0438 -23.0438
   -23.0160 -23.0160 -22.9981 -22.9981  -2.7944  -2.7944  -2.7621  -2.7621
    -2.7040  -2.7040  -2.6899  -2.6899  -2.5357  -2.5357  -2.5098  -2.5098
    18.4166  18.4166  18.5364  18.5364  18.8451  18.8451  19.0423  19.0423
    19.3152  19.3152  19.5075  19.5075  19.6162  19.6162  19.7712  19.7712
    19.8934  19.8934  20.0429  20.0429  20.1006  20.1006  20.2461  20.2461
    20.2568  20.2568  20.6085  20.6085  20.9034  20.9034  20.9851  20.9851
    21.0735  21.0735  21.6570  21.6570  22.1678  22.1678  22.2688  22.2688
    23.2922  23.2922  25.6459  25.6459  25.8842  25.8842  27.5266  27.5266
    28.2493  28.2493  28.2570  28.2570  28.7129  28.7129  29.2295  29.2295
    29.4172  29.4172  30.0568  30.0568  30.4933  30.4933  30.7931  30.7931
    30.9609  30.9609  31.1930  31.1930  34.3596  34.3596  35.2762  35.2762
    35.8609  35.8609  36.5829  36.5829  37.1731  37.1731  38.4707  38.4707
    39.5616  39.5617  40.4714  40.4714  40.4764  40.4765  40.9041  40.9041
    41.1988  41.1988  41.6954  41.6955  41.7550  41.7551

          k =-0.4323 0.0000 0.1148 (  5556 PWs)   bands (ev):

   -58.9963 -58.9963 -58.9672 -58.9672 -58.8431 -58.8431 -58.8380 -58.8380
   -29.5858 -29.5858 -29.5768 -29.5768 -23.4583 -23.4583 -23.2831 -23.2831
   -23.2278 -23.2278 -23.2101 -23.2101 -23.1834 -23.1834 -23.1102 -23.1102
   -23.0951 -23.0951 -23.0755 -23.0755 -23.0707 -23.0707 -23.0389 -23.0389
   -23.0237 -23.0237 -23.0057 -23.0057  -2.7969  -2.7969  -2.7620  -2.7620
    -2.7071  -2.7071  -2.6921  -2.6921  -2.5383  -2.5383  -2.5151  -2.5151
    18.3879  18.3879  18.6226  18.6226  18.7811  18.7811  19.0987  19.0987
    19.2575  19.2575  19.5466  19.5466  19.5591  19.5591  19.8136  19.8136
    19.8719  19.8719  20.0417  20.0417  20.1586  20.1586  20.2380  20.2380
    20.3779  20.3779  20.6053  20.6053  20.8761  20.8761  20.9259  20.9259
    21.1591  21.1591  21.6222  21.6222  22.0617  22.0617  22.2482  22.2482
    23.3841  23.3841  24.7319  24.7319  26.4595  26.4595  27.8347  27.8347
    28.1123  28.1123  28.4716  28.4716  28.7657  28.7657  29.2207  29.2207
    29.3068  29.3068  29.9133  29.9133  30.4363  30.4363  30.8920  30.8920
    31.0278  31.0278  31.6406  31.6406  33.5880  33.5880  35.3975  35.3975
    36.3301  36.3301  36.7897  36.7897  37.0213  37.0214  37.9371  37.9372
    39.6079  39.6079  39.9432  39.9432  40.5549  40.5549  40.8529  40.8530
    41.4073  41.4073  41.7821  41.7823  42.2835  42.2838

          k =-0.4323 0.0000-0.2295 (  5536 PWs)   bands (ev):

   -58.9878 -58.9878 -58.9642 -58.9642 -58.8363 -58.8363 -58.8338 -58.8338
   -29.5859 -29.5859 -29.5755 -29.5755 -23.4594 -23.4594 -23.2864 -23.2864
   -23.2188 -23.2188 -23.2009 -23.2009 -23.1771 -23.1771 -23.1015 -23.1015
   -23.0930 -23.0930 -23.0751 -23.0751 -23.0631 -23.0631 -23.0313 -23.0313
   -23.0158 -23.0158 -23.0053 -23.0053  -2.7990  -2.7990  -2.7539  -2.7539
    -2.7013  -2.7013  -2.6919  -2.6919  -2.5359  -2.5359  -2.5145  -2.5145
    18.3614  18.3614  18.7401  18.7401  18.7431  18.7431  19.0760  19.0760
    19.2101  19.2101  19.4988  19.4988  19.6134  19.6134  19.7605  19.7605
    19.9911  19.9911  20.1190  20.1190  20.1533  20.1533  20.1977  20.1977
    20.5231  20.5231  20.6478  20.6478  20.6729  20.6729  20.8630  20.8630
    21.3477  21.3477  21.6520  21.6520  21.8530  21.8530  22.2335  22.2335
    23.5598  23.5598  24.1665  24.1665  26.6690  26.6690  27.7996  27.7996
    28.2395  28.2395  28.5759  28.5759  28.7710  28.7710  29.0612  29.0612
    29.6851  29.6851  30.0446  30.0446  30.0451  30.0451  30.9426  30.9426
    31.2046  31.2046  32.3899  32.3899  32.5269  32.5269  35.5852  35.5852
    36.3577  36.3577  36.8587  36.8587  36.9692  36.9692  38.4042  38.4042
    38.7595  38.7595  39.5351  39.5352  40.3627  40.3628  41.2492  41.2492
    41.7183  41.7184  42.1169  42.1170  42.3946  42.3948

          k =-0.4323 0.2236 0.0000 (  5540 PWs)   bands (ev):

   -58.9840 -58.9840 -58.9716 -58.9716 -58.8369 -58.8369 -58.8338 -58.8338
   -29.5846 -29.5846 -29.5797 -29.5797 -23.3779 -23.3779 -23.2569 -23.2569
   -23.2443 -23.2443 -23.2056 -23.2056 -23.1939 -23.1939 -23.1551 -23.1551
   -23.0954 -23.0954 -23.0932 -23.0932 -23.0549 -23.0549 -23.0380 -23.0380
   -23.0104 -23.0104 -23.0060 -23.0060  -2.7934  -2.7934  -2.7774  -2.7774
    -2.7049  -2.7049  -2.6983  -2.6983  -2.5383  -2.5383  -2.5301  -2.5301
    18.6601  18.6601  18.8484  18.8484  19.0617  19.0617  19.1680  19.1680
    19.4269  19.4269  19.4721  19.4721  19.7391  19.7391  19.8222  19.8222
    19.9233  19.9233  20.1053  20.1053  20.1491  20.1491  20.2991  20.2991
    20.4907  20.4907  20.5052  20.5052  20.6484  20.6484  20.9451  20.9451
    21.2004  21.2004  21.4466  21.4466  21.7962  21.7962  21.9668  21.9668
    23.8539  23.8539  25.3087  25.3087  26.0637  26.0637  26.6498  26.6498
    27.6689  27.6689  27.7544  27.7544  28.9887  28.9887  29.1948  29.1948
    29.4033  29.4033  29.7827  29.7827  30.0213  30.0213  30.1878  30.1878
    31.5498  31.5498  31.7624  31.7624  33.2514  33.2514  33.5371  33.5371
    36.9489  36.9489  37.9016  37.9016  38.7367  38.7367  39.3898  39.3898
    39.9226  39.9226  40.2192  40.2192  40.5830  40.5830  41.2654  41.2655
    41.4899  41.4900  42.2473  42.2474  42.6318  42.6309

          k =-0.4323 0.2236 0.1148 (  5554 PWs)   bands (ev):

   -58.9892 -58.9892 -58.9739 -58.9739 -58.8418 -58.8418 -58.8361 -58.8361
   -29.5849 -29.5849 -29.5803 -29.5803 -23.3785 -23.3785 -23.2601 -23.2601
   -23.2461 -23.2461 -23.2162 -23.2162 -23.2015 -23.2015 -23.1648 -23.1648
   -23.0930 -23.0930 -23.0798 -23.0798 -23.0604 -23.0604 -23.0430 -23.0430
   -23.0178 -23.0178 -23.0073 -23.0073  -2.7948  -2.7948  -2.7750  -2.7750
    -2.7088  -2.7088  -2.7018  -2.7018  -2.5393  -2.5393  -2.5329  -2.5329
    18.6137  18.6137  18.9297  18.9297  19.0393  19.0393  19.2663  19.2663
    19.3737  19.3737  19.4917  19.4917  19.5898  19.5898  19.8251  19.8251
    19.9485  19.9485  20.1239  20.1239  20.1919  20.1919  20.3731  20.3731
    20.4601  20.4601  20.5934  20.5934  20.7420  20.7420  20.8732  20.8732
    21.1936  21.1936  21.3985  21.3985  21.7157  21.7157  21.9663  21.9663
    23.9084  23.9084  24.7966  24.7966  26.0377  26.0377  26.7938  26.7938
    27.7353  27.7353  28.1804  28.1804  28.6806  28.6806  29.2382  29.2382
    29.4472  29.4472  29.8599  29.8599  29.9223  29.9223  30.1950  30.1950
    31.6692  31.6692  31.9959  31.9959  32.8753  32.8753  34.1505  34.1505
    36.8910  36.8910  37.2025  37.2025  38.3202  38.3203  39.1996  39.1996
    39.6407  39.6408  40.7974  40.7974  40.9284  40.9285  41.4203  41.4204
    41.6572  41.6572  42.1307  42.1307  42.5304  42.5304

          k =-0.4323 0.2236-0.2295 (  5544 PWs)   bands (ev):

   -58.9858 -58.9858 -58.9729 -58.9729 -58.8428 -58.8428 -58.8313 -58.8313
   -29.5848 -29.5848 -29.5801 -29.5801 -23.3760 -23.3760 -23.2490 -23.2490
   -23.2455 -23.2455 -23.2182 -23.2182 -23.2078 -23.2078 -23.1630 -23.1630
   -23.0866 -23.0866 -23.0693 -23.0693 -23.0632 -23.0632 -23.0440 -23.0440
   -23.0176 -23.0176 -23.0072 -23.0072  -2.7959  -2.7959  -2.7731  -2.7731
    -2.7063  -2.7063  -2.7024  -2.7024  -2.5380  -2.5380  -2.5320  -2.5320
    18.5730  18.5730  18.9867  18.9867  19.1438  19.1438  19.2412  19.2412
    19.3526  19.3526  19.4474  19.4474  19.5117  19.5117  19.9082  19.9082
    19.9517  19.9517  20.1130  20.1130  20.1229  20.1229  20.5092  20.5092
    20.5444  20.5444  20.6362  20.6362  20.7418  20.7418  20.8431  20.8431
    21.1189  21.1189  21.4832  21.4832  21.5669  21.5669  21.9488  21.9488
    24.1611  24.1611  24.2075  24.2075  26.0660  26.0660  26.7152  26.7152
    28.1523  28.1523  28.2249  28.2249  28.5620  28.5620  29.1006  29.1006
    29.6997  29.6997  29.7361  29.7361  30.0223  30.0223  30.1534  30.1534
    31.7887  31.7887  32.0555  32.0555  32.7476  32.7476  34.9953  34.9953
    36.0769  36.0769  37.0053  37.0054  37.8778  37.8778  38.8254  38.8254
    39.9384  39.9385  40.9425  40.9425  41.3681  41.3683  41.5648  41.5649
    41.8637  41.8638  42.0517  42.0517  42.3734  42.3735

     the Fermi energy is    34.5599 ev

!    total energy              =   -3046.76982171 Ry
     Harris-Foulkes estimate   =   -3046.76982681 Ry
     estimated scf accuracy    <       0.00000637 Ry

     The total energy is the sum of the following terms:

     one-electron contribution =    -320.15048145 Ry
     hartree contribution      =     383.70074648 Ry
     xc contribution           =    -285.09469980 Ry
     ewald contribution        =   -2825.02291536 Ry
     smearing contrib. (-TS)   =      -0.20247158 Ry

     convergence has been achieved in  11 iterations

     Forces acting on atoms (Ry/au):

     atom    1 type  1   force =     0.00000000   -0.04639087   -0.01671828
     atom    2 type  1   force =     0.00000000    0.04639087    0.01671828
     atom    3 type  1   force =     0.00000000   -0.04639087    0.01671828
     atom    4 type  1   force =     0.00000000    0.04639087   -0.01671828
     atom    5 type  1   force =     0.00000000    0.05975957   -0.02934431
     atom    6 type  1   force =     0.00000000   -0.05975957    0.02934431
     atom    7 type  1   force =     0.00000000    0.05975957    0.02934431
     atom    8 type  1   force =     0.00000000   -0.05975957   -0.02934431
     atom    9 type  2   force =     0.00000000   -0.06681038   -0.01513175
     atom   10 type  2   force =     0.00000000    0.06681038    0.01513175
     atom   11 type  2   force =     0.00000000   -0.06681038    0.01513175
     atom   12 type  2   force =     0.00000000    0.06681038   -0.01513175

     Total force =     0.215002     Total SCF correction =     0.000000


     entering subroutine stress ...

          total   stress  (Ry/bohr**3)                   (kbar)     P=  926.23
   0.00644937   0.00000000   0.00000000        948.73      0.00      0.00
   0.00000000   0.00590013   0.00000000          0.00    867.94      0.00
   0.00000000   0.00000000   0.00653969          0.00      0.00    962.02


     Writing output data file Prototype-La-oP12-Co2Si.save
 
     init_run     :      4.85s CPU      6.68s WALL (       2 calls)
     electrons    :   1326.92s CPU   1480.74s WALL (       5 calls)
     update_pot   :      2.09s CPU      2.57s WALL (       3 calls)
     forces       :      4.28s CPU      4.54s WALL (       5 calls)
     stress       :     16.79s CPU     17.07s WALL (       5 calls)

     Called by init_run:
     wfcinit      :      3.77s CPU      4.93s WALL (       2 calls)
     potinit      :      0.48s CPU      0.48s WALL (       2 calls)

     Called by electrons:
     c_bands      :   1302.37s CPU   1426.80s WALL (      48 calls)
     sum_band     :     24.05s CPU     29.48s WALL (      48 calls)
     v_of_rho     :      0.09s CPU      0.10s WALL (      53 calls)
     mix_rho      :      0.09s CPU      0.11s WALL (      48 calls)

     Called by c_bands:
     init_us_2    :      1.61s CPU      1.81s WALL (    1296 calls)
     ccgdiagg     :   1217.74s CPU   1316.83s WALL (     683 calls)
     wfcrot       :     86.61s CPU    111.58s WALL (     695 calls)

     Called by *cgdiagg:
     h_psi        :    808.04s CPU    921.56s WALL (  511612 calls)
     cdiaghg      :      5.99s CPU      6.74s WALL (     695 calls)

     Called by h_psi:
     add_vuspsi   :    173.99s CPU    182.46s WALL (  511612 calls)

     General routines
     calbec       :    421.80s CPU    442.37s WALL ( 1022649 calls)
     fft          :      0.17s CPU      0.19s WALL (     235 calls)
     fftw         :    365.55s CPU    430.88s WALL ( 1301006 calls)
     davcio       :      1.10s CPU      3.02s WALL (    1872 calls)
 
     Parallel routines
     fft_scatter  :    171.23s CPU    202.62s WALL ( 1301241 calls)
 
     PWSCF        : 22m35.44s CPU    25m15.58s WALL

 
   This run was terminated on:   1:21:13  23Mar2018            

=------------------------------------------------------------------------------=
   JOB DONE.
=------------------------------------------------------------------------------=
