
     Program PWSCF v.5.0.2 starts on 22Mar2018 at 10:14:18 

     This program is part of the open-source Quantum ESPRESSO suite
     for quantum simulation of materials; please cite
         "P. Giannozzi et al., J. Phys.:Condens. Matter 21 395502 (2009);
          URL http://www.quantum-espresso.org", 
     in publications or presentations arising from this work. More details at
     http://www.quantum-espresso.org/quote.php

     Parallel version (MPI), running on     4 processors
     R & G space division:  proc/nbgrp/npool/nimage =       4

     Current dimensions of program PWSCF are:
     Max number of different atomic species (ntypx) = 10
     Max number of k-points (npk) =  40000
     Max angular momentum in pseudopotentials (lmaxx) =  3
     Waiting for input...
     Reading input from standard input

     Subspace diagonalization in iterative solution of the eigenvalue problem:
     a serial algorithm will be used

 
     Parallelization info
     --------------------
     sticks:   dense  smooth     PW     G-vecs:    dense   smooth      PW
     Min         269     269     78                 9541     9541    1486
     Max         270     270     79                 9544     9544    1487
     Sum        1077    1077    315                38169    38169    5947
 


     bravais-lattice index     =            0
     lattice parameter (alat)  =       8.8008  a.u.
     unit-cell volume          =    1116.9454 (a.u.)^3
     number of atoms/cell      =           16
     number of atomic types    =            2
     number of electrons       =       396.00
     number of Kohn-Sham states=          238
     kinetic-energy cutoff     =      40.0000  Ry
     charge density cutoff     =     160.0000  Ry
     convergence threshold     =      1.0E-04
     mixing beta               =       0.7000
     number of iterations used =            8  plain     mixing
     Exchange-correlation      = SLA-PZ-NOGX-NOGC ( 1 1 0 0 0)
     EXX-fraction              =        0.00
     nstep                     =           50


     celldm(1)=   8.800765  celldm(2)=   0.000000  celldm(3)=   0.000000
     celldm(4)=   0.000000  celldm(5)=   0.000000  celldm(6)=   0.000000

     crystal axes: (cart. coord. in units of alat)
               a(1) = (   1.000000   0.000000   0.000000 )  
               a(2) = (   0.000000   1.083771   0.000000 )  
               a(3) = (   0.000000   0.000000   1.511935 )  

     reciprocal axes: (cart. coord. in units 2 pi/alat)
               b(1) = (  1.000000  0.000000  0.000000 )  
               b(2) = (  0.000000  0.922704  0.000000 )  
               b(3) = (  0.000000  0.000000  0.661404 )  


     PseudoPot. # 1 for Lu read from file:
     /home/cwx6513/pp.La/La.UPF
     MD5 check sum: 4fc038260c66a0bf25fb4835376efb80
     Pseudo is Norm-conserving, Zval = 25.0
     Generated in analytical, separable form
     Using radial grid of 1271 points,  6 beta functions with: 
                l(1) =   0
                l(2) =   0
                l(3) =   1
                l(4) =   1
                l(5) =   2
                l(6) =   3

     PseudoPot. # 2 for Yb read from file:
     /home/cwx6513/pp.La/Yb.UPF
     MD5 check sum: 3e859b81cc28c53ec6aa3a2e888efcdf
     Pseudo is Norm-conserving, Zval = 24.0
     Generated in analytical, separable form
     Using radial grid of 1269 points,  6 beta functions with: 
                l(1) =   0
                l(2) =   0
                l(3) =   1
                l(4) =   1
                l(5) =   2
                l(6) =   3

     atomic species   valence    mass     pseudopotential
        Fe            25.00    55.84500     Lu( 1.00)
        C             24.00    12.01070     Yb( 1.00)

      8 Sym. Ops., with inversion, found ( 6 have fractional translation)



   Cartesian axes

     site n.     atom                  positions (alat units)
         1           Fe  tau(   1) = (   0.3472940   0.1827628   1.3947267  )
         2           Fe  tau(   2) = (   0.1527060   0.7246484   0.8731757  )
         3           Fe  tau(   3) = (   0.8472940   0.3591227   0.6387592  )
         4           Fe  tau(   4) = (   0.3396640   0.4879235   0.3779837  )
         5           Fe  tau(   5) = (   0.1527060   0.7246484   1.3947267  )
         6           Fe  tau(   6) = (   0.3472940   0.1827628   0.8731757  )
         7           Fe  tau(   7) = (   0.1603360   1.0298091   0.3779837  )
         8           Fe  tau(   8) = (   0.6527060   0.9010083   0.6387592  )
         9           Fe  tau(   9) = (   0.8472940   0.3591227   0.1172082  )
        10           Fe  tau(  10) = (   0.6603360   0.5958476   1.1339512  )
        11           Fe  tau(  11) = (   0.6527060   0.9010083   0.1172082  )
        12           Fe  tau(  12) = (   0.8396640   0.0539620   1.1339512  )
        13           C   tau(  13) = (   0.0000000   0.0000000   0.0000000  )
        14           C   tau(  14) = (   0.5000000   0.5418856   0.0000000  )
        15           C   tau(  15) = (   0.5000000   0.5418856   0.7559674  )
        16           C   tau(  16) = (   0.0000000   0.0000000   0.7559674  )

     number of k points=    12  gaussian smearing, width (Ry)=  0.1000
                       cart. coord. in units 2pi/alat
        k(    1) = (   0.0000000   0.0000000   0.0000000), wk =   0.0833333
        k(    2) = (   0.0000000   0.0000000   0.1653510), wk =   0.1666667
        k(    3) = (   0.0000000   0.0000000  -0.3307021), wk =   0.0833333
        k(    4) = (   0.0000000   0.3075680   0.0000000), wk =   0.1666667
        k(    5) = (   0.0000000   0.3075680   0.1653510), wk =   0.3333333
        k(    6) = (   0.0000000   0.3075680  -0.3307021), wk =   0.1666667
        k(    7) = (  -0.5000000   0.0000000   0.0000000), wk =   0.0833333
        k(    8) = (  -0.5000000   0.0000000   0.1653510), wk =   0.1666667
        k(    9) = (  -0.5000000   0.0000000  -0.3307021), wk =   0.0833333
        k(   10) = (  -0.5000000   0.3075680   0.0000000), wk =   0.1666667
        k(   11) = (  -0.5000000   0.3075680   0.1653510), wk =   0.3333333
        k(   12) = (  -0.5000000   0.3075680  -0.3307021), wk =   0.1666667

     Dense  grid:    38169 G-vectors     FFT dimensions: (  36,  40,  54)

     Largest allocated arrays     est. size (Mb)     dimensions
        Kohn-Sham Wavefunctions         4.40 Mb     (   1211,  238)
        NL pseudopotentials             5.91 Mb     (   1211,  320)
        Each V/rho on FFT grid          0.31 Mb     (  20160)
        Each G-vector array             0.07 Mb     (   9543)
        G-vector shells                 0.07 Mb     (   9543)
     Largest temporary arrays     est. size (Mb)     dimensions
        Each subspace H/S matrix        0.86 Mb     ( 238, 238)
        Each <psi_i|beta_j> matrix      1.16 Mb     (    320,  238)
        Arrays for rho mixing           2.46 Mb     (  20160,   8)

     Initial potential from superposition of free atoms

     Starting from uniform charge
     Starting wfc are    0 randomized atomic wfcs

     total cpu time spent up to now is        5.6 secs

     Self-consistent Calculation

     iteration #  1     ecut=    40.00 Ry     beta=0.70
     CG style diagonalization
     ethr =  1.00E-02,  avg # of iterations = 24.4

     total cpu time spent up to now is      223.9 secs

     total energy              =   -6059.72855578 Ry
     Harris-Foulkes estimate   =   -8795.33880669 Ry
     estimated scf accuracy    <    3299.43179782 Ry

     iteration #  2     ecut=    40.00 Ry     beta=0.70
     CG style diagonalization
     c_bands:  1 eigenvalues not converged
     c_bands:  1 eigenvalues not converged
     c_bands:  1 eigenvalues not converged
     c_bands:  1 eigenvalues not converged
     c_bands:  1 eigenvalues not converged
     c_bands:  2 eigenvalues not converged
     c_bands:  1 eigenvalues not converged
     ethr =  1.00E-02,  avg # of iterations = 11.5

     total cpu time spent up to now is      325.3 secs

     total energy              =   -6469.67010451 Ry
     Harris-Foulkes estimate   =   -7601.68061440 Ry
     estimated scf accuracy    <    1812.10837957 Ry

     iteration #  3     ecut=    40.00 Ry     beta=0.70
     CG style diagonalization
     c_bands:  4 eigenvalues not converged
     c_bands:  3 eigenvalues not converged
     c_bands:  2 eigenvalues not converged
     c_bands:  4 eigenvalues not converged
     c_bands:  3 eigenvalues not converged
     c_bands:  1 eigenvalues not converged
     c_bands:  5 eigenvalues not converged
     c_bands:  4 eigenvalues not converged
     ethr =  1.00E-02,  avg # of iterations = 13.5

     total cpu time spent up to now is      437.5 secs

     total energy              =   -6956.05878435 Ry
     Harris-Foulkes estimate   =   -7110.77810530 Ry
     estimated scf accuracy    <     319.25612214 Ry

     iteration #  4     ecut=    40.00 Ry     beta=0.70
     CG style diagonalization
     ethr =  1.00E-02,  avg # of iterations =  4.7

     total cpu time spent up to now is      476.9 secs

     total energy              =   -7019.59277484 Ry
     Harris-Foulkes estimate   =   -7022.98493553 Ry
     estimated scf accuracy    <       6.08732595 Ry

     iteration #  5     ecut=    40.00 Ry     beta=0.70
     CG style diagonalization
     ethr =  1.54E-03,  avg # of iterations =  4.1

     total cpu time spent up to now is      509.4 secs

     total energy              =   -7021.64382307 Ry
     Harris-Foulkes estimate   =   -7021.85394594 Ry
     estimated scf accuracy    <       0.33688644 Ry

     iteration #  6     ecut=    40.00 Ry     beta=0.70
     CG style diagonalization
     c_bands:  1 eigenvalues not converged
     c_bands:  1 eigenvalues not converged
     c_bands:  3 eigenvalues not converged
     c_bands:  1 eigenvalues not converged
     c_bands:  1 eigenvalues not converged
     ethr =  8.51E-05,  avg # of iterations =  4.6

     total cpu time spent up to now is      547.1 secs

     total energy              =   -7021.76767492 Ry
     Harris-Foulkes estimate   =   -7021.83698455 Ry
     estimated scf accuracy    <       0.13545553 Ry

     iteration #  7     ecut=    40.00 Ry     beta=0.70
     CG style diagonalization
     ethr =  3.42E-05,  avg # of iterations =  3.6

     total cpu time spent up to now is      575.7 secs

     total energy              =   -7021.79937777 Ry
     Harris-Foulkes estimate   =   -7021.80683787 Ry
     estimated scf accuracy    <       0.01351893 Ry

     iteration #  8     ecut=    40.00 Ry     beta=0.70
     CG style diagonalization
     c_bands:  1 eigenvalues not converged
     c_bands:  1 eigenvalues not converged
     c_bands:  1 eigenvalues not converged
     c_bands:  1 eigenvalues not converged
     c_bands:  1 eigenvalues not converged
     ethr =  3.41E-06,  avg # of iterations =  3.9

     total cpu time spent up to now is      607.0 secs

     total energy              =   -7021.80290277 Ry
     Harris-Foulkes estimate   =   -7021.80351323 Ry
     estimated scf accuracy    <       0.00102246 Ry

     iteration #  9     ecut=    40.00 Ry     beta=0.70
     CG style diagonalization
     c_bands:  1 eigenvalues not converged
     c_bands:  1 eigenvalues not converged
     c_bands:  1 eigenvalues not converged
     ethr =  2.58E-07,  avg # of iterations =  4.1

     total cpu time spent up to now is      638.7 secs

     total energy              =   -7021.80330676 Ry
     Harris-Foulkes estimate   =   -7021.80349509 Ry
     estimated scf accuracy    <       0.00037629 Ry

     iteration # 10     ecut=    40.00 Ry     beta=0.70
     CG style diagonalization
     ethr =  9.50E-08,  avg # of iterations =  3.5

     total cpu time spent up to now is      665.7 secs

     End of self-consistent calculation

          k = 0.0000 0.0000 0.0000 (  4785 PWs)   bands (ev):

   -77.2152 -77.1946 -77.1818 -77.1706 -77.1384 -77.1376 -77.1177 -77.1135
   -77.0388 -77.0280 -77.0056 -76.9912 -68.1782 -68.1206 -68.0696 -68.0473
   -34.8814 -34.8647 -34.8111 -34.8001 -34.5105 -34.4870 -33.9510 -33.9494
   -33.8870 -33.8723 -33.7624 -33.7018 -33.0800 -33.0294 -32.9570 -32.8839
   -32.8222 -32.7623 -32.7402 -32.7224 -32.7210 -32.6120 -32.5664 -32.5544
   -32.5151 -32.4252 -32.4052 -32.3832 -32.3608 -32.3606 -32.2918 -32.2883
   -32.2765 -32.2703 -32.1768 -32.1707 -27.5910 -27.5606 -27.5212 -27.5117
   -27.4285 -27.4048 -26.7581 -26.7468 -26.7343 -26.6910 -26.6849 -26.6763
    18.6495  18.7186  19.0328  19.8259  19.8335  19.9827  20.1834  20.5136
    21.6952  22.0810  22.3270  22.4698  22.6491  23.9984  24.1272  24.2587
    24.4595  24.5741  24.5868  24.6719  24.8321  24.9146  24.9870  25.1192
    25.1353  25.1854  25.1874  25.3867  25.3909  25.4117  25.4934  25.5384
    25.6792  25.6848  25.7047  25.7255  25.7301  25.8959  26.1380  26.2250
    26.3123  26.6029  26.6360  26.7154  26.8974  26.9284  27.0876  27.1242
    27.3458  27.6479  27.7336  27.7545  27.8253  27.8618  28.0776  28.1724
    28.2437  28.2817  28.4625  28.7017  29.2900  29.4389  29.8207  29.9355
    30.2394  30.4194  30.4853  31.0262  31.4738  32.1737  32.2756  32.3740
    33.0932  34.2626  34.2769  34.3142  34.4050  34.4945  35.2893  35.4332
    35.5772  36.0559  37.0760  39.8515  40.0891  41.7320  43.3140  43.7705
    43.9330  43.9729  44.3910  47.0801  47.2367  47.5886  48.0341  48.3171
    48.5700  49.0547  50.4504  50.8790  51.1854  51.3012  51.8264  52.0459
    52.1609  52.6324  53.5214  53.8873  55.0419  55.4032  55.6017  56.5027
    57.0722  57.1714  57.4102  57.5909  57.7295  57.8543  58.4336  58.5883
    58.8077  58.9917  59.1396  59.2559  59.2848  59.4246  59.9444  60.6472
    60.6998  60.7812  60.7875  61.1409  61.2479  61.4561  61.5998  61.7344
    62.0398  62.0460  62.1886  62.3332  62.6177  62.7334  63.2926  63.4260
    63.9280  64.3939  64.4108  64.4990  64.6122  65.1866  65.5789  65.7965
    65.9308  66.3811  66.5082  66.8636  66.9728  67.0158  67.1088  67.2635
    67.5592  67.7113  67.7706  68.1016  68.2199  68.3566  68.5038  68.6478
    68.6758  68.8886  69.0536  69.3682  69.4813  69.5729

          k = 0.0000 0.0000 0.1654 (  4759 PWs)   bands (ev):

   -77.2044 -77.1835 -77.1629 -77.1516 -77.1140 -77.1006 -77.0846 -77.0737
   -77.0422 -76.9934 -76.9649 -76.9449 -68.1521 -68.0953 -68.0633 -68.0311
   -34.8781 -34.8644 -34.8047 -34.7909 -34.4168 -34.4011 -33.9459 -33.9451
   -33.9207 -33.8925 -33.8647 -33.7987 -33.0567 -33.0058 -32.9798 -32.9044
   -32.7963 -32.7351 -32.7086 -32.7059 -32.6663 -32.6160 -32.5570 -32.5496
   -32.5241 -32.4520 -32.4222 -32.4016 -32.3300 -32.3197 -32.2915 -32.2873
   -32.2813 -32.2705 -32.1654 -32.1644 -27.5860 -27.5608 -27.5031 -27.5000
   -27.3353 -27.2863 -26.8391 -26.8131 -26.7360 -26.7233 -26.6841 -26.6736
    18.6622  18.7128  19.2639  19.8216  19.8417  20.1932  20.2678  20.3801
    21.6690  22.1225  22.2829  22.6116  22.6737  23.3843  23.6574  23.8378
    24.2014  24.2239  24.3081  24.6098  24.8920  24.9125  24.9901  25.1029
    25.1183  25.1990  25.2709  25.2997  25.3808  25.4109  25.4316  25.4846
    25.5756  25.7429  25.8847  26.0689  26.2550  26.2710  26.2764  26.3682
    26.5059  26.5371  26.7649  26.8378  27.0324  27.1167  27.1262  27.1434
    27.3013  27.6754  27.7027  27.7352  27.7441  27.7985  27.9612  28.1694
    28.1742  28.2718  28.3843  28.4175  29.4031  29.7498  29.7625  30.2283
    30.5568  30.7835  30.7985  30.9522  31.7572  31.9177  32.4188  32.5771
    32.9823  33.9464  34.0172  34.0456  34.1913  34.3515  34.3591  34.9895
    35.4419  35.7554  39.1716  40.0472  40.3999  41.9507  41.9846  42.8895
    43.3732  44.7024  45.6569  45.7169  46.2821  47.9070  48.6427  48.9598
    49.3033  49.6124  49.9904  50.2817  51.1443  51.2470  51.8390  52.2863
    52.4087  53.2484  53.3199  53.8082  54.4934  55.7142  56.0800  56.4730
    56.8025  57.0806  57.1376  57.4175  57.6351  57.7317  58.6629  58.7531
    58.7920  58.9477  59.2728  59.4984  59.6320  59.7345  59.8499  60.1945
    60.6715  60.9630  60.9812  60.9838  61.3382  61.5136  61.9562  62.0207
    62.0646  62.1115  62.3803  62.5100  62.5330  62.8168  63.1058  63.3302
    63.3646  63.5420  64.0793  64.4590  64.4752  64.7863  65.0506  65.4295
    65.6973  66.0420  66.0466  66.4060  66.7870  66.8471  67.3624  67.5067
    67.5371  67.7315  68.1772  68.3674  68.4508  68.7919  68.8011  68.9565
    69.1315  69.1505  69.4619  69.4846  69.5065  69.9057

          k = 0.0000 0.0000-0.3307 (  4758 PWs)   bands (ev):

   -77.2255 -77.2255 -77.1796 -77.1796 -77.0769 -77.0769 -77.0664 -77.0664
   -77.0046 -77.0046 -76.9620 -76.9620 -68.1304 -68.1304 -68.0354 -68.0354
   -34.8676 -34.8676 -34.7948 -34.7948 -34.1841 -34.1841 -34.1597 -34.1597
   -33.9418 -33.9418 -33.8527 -33.8527 -33.0284 -33.0284 -32.9568 -32.9568
   -32.7587 -32.7587 -32.6749 -32.6749 -32.5927 -32.5927 -32.5862 -32.5862
   -32.5082 -32.5082 -32.4226 -32.4226 -32.3031 -32.3031 -32.2987 -32.2987
   -32.2715 -32.2715 -32.1634 -32.1634 -27.5754 -27.5754 -27.5003 -27.5003
   -27.0841 -27.0841 -27.0447 -27.0447 -26.7314 -26.7314 -26.6787 -26.6787
    18.6887  18.6887  19.7234  19.7234  19.9707  19.9707  20.4002  20.4002
    22.0936  22.0936  22.1913  22.1913  23.0462  23.0462  23.0529  23.0529
    24.1880  24.1880  24.3480  24.3480  24.9806  24.9806  25.0135  25.0135
    25.1789  25.1789  25.2688  25.2688  25.3114  25.3114  25.5876  25.5876
    25.7297  25.7297  25.7670  25.7670  26.3638  26.3638  26.6285  26.6285
    26.7632  26.7632  26.9271  26.9271  27.1616  27.1616  27.2095  27.2095
    27.4880  27.4880  27.5359  27.5359  27.6924  27.6924  28.0957  28.0957
    28.1346  28.1346  28.3142  28.3142  29.5988  29.5988  30.3517  30.3517
    30.7647  30.7647  31.3102  31.3102  32.0459  32.0459  32.6255  32.6255
    32.9188  32.9188  33.5581  33.5581  33.9155  33.9155  34.5676  34.5676
    35.5497  35.5497  40.5414  40.5414  41.7223  41.7223  42.0901  42.0901
    42.6857  42.6857  45.2669  45.2669  48.0369  48.0369  49.3944  49.3944
    49.4103  49.4103  50.2456  50.2456  51.4460  51.4460  51.5890  51.5890
    52.2788  52.2788  53.3660  53.3660  55.9399  55.9399  56.4735  56.4735
    56.9264  56.9264  57.0900  57.0900  57.6863  57.6863  58.7524  58.7524
    58.9260  58.9260  59.1465  59.1465  59.8817  59.8817  60.2483  60.2483
    60.7221  60.7221  60.8172  60.8172  61.5222  61.5222  61.9348  61.9348
    62.1495  62.1495  62.3969  62.3969  62.6207  62.6207  63.0226  63.0226
    63.4714  63.4714  64.0671  64.0672  64.5334  64.5335  65.0087  65.0087
    65.2665  65.2665  66.1676  66.1676  66.8512  66.8512  66.9526  66.9526
    67.7631  67.7632  68.5450  68.5452  68.7627  68.7628  68.9276  68.9278
    69.0155  69.0157  69.6011  69.6015  69.7044  69.7044

          k = 0.0000 0.3076 0.0000 (  4761 PWs)   bands (ev):

   -77.1941 -77.1789 -77.1395 -77.1361 -77.1349 -77.1275 -77.1017 -77.0702
   -77.0468 -76.9980 -76.9651 -76.9545 -68.1412 -68.0878 -68.0730 -68.0494
   -34.6913 -34.6747 -34.6078 -34.6055 -34.4984 -34.4979 -34.2399 -34.2195
   -34.1617 -34.1428 -33.7505 -33.7262 -32.9413 -32.9254 -32.8418 -32.8204
   -32.8010 -32.7963 -32.7372 -32.7336 -32.7209 -32.6663 -32.5577 -32.5484
   -32.5067 -32.4578 -32.4020 -32.3904 -32.3537 -32.3448 -32.2690 -32.2653
   -32.2610 -32.2472 -32.1977 -32.1903 -27.4536 -27.4260 -27.3553 -27.3153
   -27.2976 -27.2832 -26.9192 -26.9124 -26.8998 -26.8821 -26.7295 -26.7111
    19.2444  19.3034  19.4054  19.7337  20.0461  20.1009  20.3487  20.5133
    22.0840  22.0901  22.1680  22.2614  22.6658  22.7029  22.7675  22.7988
    23.0477  23.3139  23.4661  23.5374  24.2584  24.5625  25.0669  25.2677
    25.4378  25.4454  25.5134  25.6081  25.6645  25.6940  25.7985  25.8921
    25.9508  26.0883  26.1501  26.2150  26.2303  26.3089  26.4763  26.5346
    26.6737  26.7294  26.8722  26.8935  26.9093  27.1547  27.1631  27.3092
    27.5963  27.6410  27.7261  27.7399  27.9379  28.0656  28.1433  28.1886
    28.1936  28.3193  28.3775  28.4548  30.3837  30.5951  30.7082  30.7211
    30.7360  30.8815  31.2030  31.5967  31.8425  31.8770  32.4190  32.6530
    32.9401  33.5647  33.8088  33.9047  33.9445  34.0956  34.4684  34.5512
    34.8501  35.4888  36.4536  38.1540  38.9043  40.8041  42.7640  43.2630
    45.2391  45.8015  45.9009  46.7270  47.4729  47.9225  48.1606  48.5435
    48.8422  49.1092  49.8190  49.9450  50.7466  50.9700  51.2292  51.5109
    52.3441  53.8471  55.0161  55.3239  55.7978  56.1690  56.1889  56.5021
    56.6740  57.1458  57.7263  57.7574  58.0155  58.2334  58.3995  58.5842
    58.8128  58.8666  59.1877  59.4027  59.5197  59.7257  59.7521  60.1107
    60.2675  60.5564  61.1823  61.3612  61.4934  61.5993  61.6376  62.1866
    62.2045  62.3626  62.4768  62.7687  63.0078  63.2070  63.2497  63.4518
    63.6220  64.2151  64.2349  64.6983  64.8101  64.8516  64.9696  65.1648
    65.3273  65.3657  65.4279  65.4390  65.6414  65.7843  65.8371  66.3014
    67.0290  67.3772  67.4880  67.7398  68.1338  68.2473  68.4776  68.4977
    68.8589  68.9330  69.0259  69.3952  69.6188  69.6524

          k = 0.0000 0.3076 0.1654 (  4779 PWs)   bands (ev):

   -77.2021 -77.2015 -77.1842 -77.1796 -77.1535 -77.1280 -77.1126 -77.0928
   -77.0417 -77.0147 -76.9983 -76.9907 -68.1377 -68.1230 -68.0926 -68.0518
   -34.6980 -34.6755 -34.6137 -34.6028 -34.4160 -34.4069 -34.2410 -34.2255
   -34.1609 -34.1523 -33.8915 -33.8681 -32.9335 -32.9199 -32.8721 -32.8442
   -32.7951 -32.7515 -32.7445 -32.7074 -32.6748 -32.6631 -32.5580 -32.5556
   -32.5170 -32.4582 -32.4469 -32.4173 -32.3317 -32.3302 -32.2819 -32.2788
   -32.2597 -32.2503 -32.1972 -32.1963 -27.3523 -27.3479 -27.3419 -27.3018
   -27.3008 -27.2795 -26.9254 -26.9107 -26.9039 -26.8871 -26.8327 -26.8086
    19.3235  19.3938  19.4777  19.9588  20.0588  20.0874  20.4000  20.4463
    22.0264  22.1490  22.2711  22.2844  22.6365  22.6394  22.6822  22.7255
    22.9296  23.1131  23.1476  23.3023  24.0078  24.3536  24.5392  24.5467
    25.5016  25.6099  25.6641  25.7886  25.8723  25.9875  26.0560  26.0625
    26.0994  26.1603  26.2519  26.2885  26.3496  26.4455  26.6240  26.6695
    26.7127  26.7331  26.7699  26.7952  26.9719  27.0835  27.2324  27.2372
    27.6326  27.6972  27.7140  27.7709  27.9186  27.9348  28.0848  28.2189
    28.2192  28.2558  28.3109  28.4161  30.6156  30.8811  30.8988  31.0376
    31.0791  31.0876  31.2202  31.5425  31.9720  32.0481  32.3273  32.4077
    33.0595  33.5161  33.5738  33.7199  33.7354  33.8929  34.1825  34.3767
    34.6940  35.1031  35.7825  37.7986  40.0188  42.2541  42.9545  43.6108
    44.4462  45.0253  46.1046  46.4225  46.4305  47.3295  47.8916  47.9756
    48.1624  49.5187  49.9105  50.0777  51.3998  51.5483  52.5825  52.9362
    53.3855  54.3394  54.5448  54.9527  55.0928  55.6761  55.9488  56.5546
    56.6900  56.6984  57.2886  57.4974  57.8811  58.0425  58.1640  58.4773
    58.7545  58.7774  59.0392  59.2145  59.8576  60.0238  60.3875  60.4520
    60.7011  60.7862  60.9752  61.3489  61.4074  61.4509  61.7909  61.8149
    62.1821  62.3553  62.3641  62.8395  62.9138  62.9607  63.4579  63.6892
    63.7389  63.9536  64.1966  64.2324  64.3997  64.4675  64.4756  64.6428
    64.9586  65.2248  65.4327  65.7328  65.7653  66.1378  66.4038  66.6446
    66.8487  66.9707  67.3149  67.6643  68.1329  68.2660  68.5770  68.6743
    69.0480  69.1376  69.2434  69.3608  69.5941  70.0277

          k = 0.0000 0.3076-0.3307 (  4780 PWs)   bands (ev):

   -77.1986 -77.1986 -77.1887 -77.1887 -77.1305 -77.1305 -77.1150 -77.1150
   -77.0243 -77.0243 -76.9984 -76.9984 -68.1190 -68.1190 -68.0844 -68.0844
   -34.6838 -34.6838 -34.6035 -34.6035 -34.2406 -34.2406 -34.2011 -34.2011
   -34.1705 -34.1705 -34.1176 -34.1176 -32.9020 -32.9020 -32.8843 -32.8843
   -32.7673 -32.7673 -32.7190 -32.7190 -32.5956 -32.5956 -32.5914 -32.5914
   -32.4930 -32.4930 -32.4488 -32.4488 -32.3052 -32.3052 -32.3026 -32.3026
   -32.2576 -32.2576 -32.1979 -32.1979 -27.3397 -27.3397 -27.2990 -27.2990
   -27.0805 -27.0805 -27.0576 -27.0576 -26.9174 -26.9174 -26.8942 -26.8942
    19.3617  19.3617  19.9652  19.9652  20.1519  20.1519  20.3556  20.3556
    22.1444  22.1444  22.2741  22.2741  22.5109  22.5109  22.6540  22.6540
    22.7920  22.7920  22.9911  22.9911  24.0727  24.0727  24.2846  24.2846
    25.7025  25.7025  25.7050  25.7050  26.0798  26.0798  26.1165  26.1165
    26.1923  26.1923  26.3166  26.3166  26.6023  26.6023  26.6364  26.6364
    26.8560  26.8560  26.8819  26.8819  26.9311  26.9311  27.1854  27.1854
    27.5914  27.5914  27.7713  27.7713  27.9492  27.9492  28.0233  28.0233
    28.2955  28.2955  28.3337  28.3337  30.9120  30.9120  31.3443  31.3443
    31.4712  31.4712  31.5670  31.5670  32.0333  32.0333  32.2798  32.2798
    33.1151  33.1151  33.3972  33.3972  33.7805  33.7805  33.8008  33.8008
    34.4696  34.4696  36.5829  36.5829  42.8972  42.8972  43.6030  43.6030
    43.7600  43.7600  45.4156  45.4156  46.7251  46.7251  46.9293  46.9293
    48.8037  48.8037  51.9400  51.9400  52.0587  52.0587  53.2182  53.2182
    53.4482  53.4482  54.2558  54.2558  55.1366  55.1366  56.4538  56.4538
    56.6522  56.6522  57.5237  57.5237  57.5554  57.5554  58.1890  58.1890
    58.4754  58.4754  58.7602  58.7602  60.5464  60.5464  60.6583  60.6583
    61.0468  61.0468  61.0556  61.0556  61.5688  61.5688  61.7230  61.7230
    62.1583  62.1583  62.5408  62.5408  63.1635  63.1635  63.1810  63.1810
    63.5221  63.5221  63.6007  63.6007  64.3589  64.3590  64.4143  64.4144
    65.2719  65.2720  65.6610  65.6610  66.1527  66.1527  66.5561  66.5562
    66.8979  66.8980  67.6357  67.6357  68.2595  68.2596  68.8184  68.8185
    69.2763  69.2765  69.5882  69.5884  69.6962  69.6964

          k =-0.5000 0.0000 0.0000 (  4798 PWs)   bands (ev):

   -77.2401 -77.2401 -77.1920 -77.1920 -77.1457 -77.1457 -77.1232 -77.1232
   -77.0516 -77.0516 -76.9966 -76.9966 -68.1242 -68.1242 -68.0985 -68.0985
   -34.5122 -34.5122 -34.4850 -34.4850 -34.4549 -34.4549 -34.4061 -34.4061
   -34.3904 -34.3904 -33.7408 -33.7408 -32.9048 -32.9048 -32.8718 -32.8718
   -32.7839 -32.7839 -32.7256 -32.7256 -32.7181 -32.7181 -32.5193 -32.5193
   -32.5068 -32.5068 -32.4007 -32.4007 -32.3750 -32.3750 -32.2903 -32.2903
   -32.2692 -32.2692 -32.1778 -32.1778 -27.4403 -27.4403 -27.1325 -27.1325
   -27.1170 -27.1170 -27.1149 -27.1149 -27.0891 -27.0891 -26.7265 -26.7265
    19.4327  19.4327  19.8524  19.8524  19.9508  19.9508  20.5579  20.5579
    21.9981  21.9981  22.0507  22.0507  22.2837  22.2837  22.5225  22.5225
    22.9203  22.9203  23.1045  23.1045  24.3185  24.3185  25.2275  25.2275
    25.4123  25.4123  25.6192  25.6192  25.7392  25.7392  26.0000  26.0000
    26.0984  26.0984  26.2712  26.2712  26.3872  26.3872  26.6577  26.6577
    26.7181  26.7181  26.8527  26.8527  27.0803  27.0803  27.6434  27.6434
    27.6842  27.6842  27.8593  27.8593  27.8998  27.8998  28.1720  28.1720
    28.1874  28.1874  28.5501  28.5501  30.7506  30.7506  30.9316  30.9316
    31.0395  31.0395  31.7636  31.7636  31.9913  31.9913  32.8421  32.8421
    32.9081  32.9081  33.5565  33.5565  33.8883  33.8883  34.4758  34.4758
    34.5229  34.5229  37.6798  37.6798  39.9198  39.9198  42.7917  42.7917
    43.4339  43.4339  45.4706  45.4706  47.2350  47.2350  47.2754  47.2754
    49.2384  49.2384  50.1003  50.1003  52.2591  52.2591  53.9409  53.9409
    54.5516  54.5516  55.0273  55.0273  55.5532  55.5532  56.5295  56.5295
    57.8474  57.8474  58.0780  58.0780  58.1431  58.1431  58.5071  58.5071
    58.8775  58.8775  59.6702  59.6702  59.7578  59.7578  60.6262  60.6262
    60.7364  60.7364  61.0325  61.0325  62.0148  62.0148  62.3665  62.3665
    62.4569  62.4569  62.4838  62.4838  62.8660  62.8660  63.2414  63.2414
    63.5076  63.5076  63.8080  63.8080  64.0598  64.0599  64.2181  64.2181
    64.4604  64.4605  64.6873  64.6873  65.1351  65.1351  66.1271  66.1271
    66.7112  66.7112  66.9333  66.9333  67.1204  67.1205  68.4017  68.4017
    68.7706  68.7709  68.9285  68.9287  69.2895  69.2898

          k =-0.5000 0.0000 0.1654 (  4784 PWs)   bands (ev):

   -77.2357 -77.2357 -77.1976 -77.1976 -77.1086 -77.1086 -77.1071 -77.1071
   -77.0493 -77.0493 -76.9777 -76.9777 -68.1068 -68.1068 -68.0872 -68.0872
   -34.4806 -34.4806 -34.4581 -34.4581 -34.4213 -34.4213 -34.4047 -34.4047
   -34.3784 -34.3784 -33.8761 -33.8761 -32.8907 -32.8907 -32.8613 -32.8613
   -32.7867 -32.7867 -32.7232 -32.7232 -32.6721 -32.6721 -32.5324 -32.5324
   -32.5073 -32.5073 -32.4226 -32.4226 -32.3492 -32.3492 -32.2893 -32.2893
   -32.2701 -32.2701 -32.1748 -32.1748 -27.3292 -27.3292 -27.1263 -27.1263
   -27.1157 -27.1157 -27.1127 -27.1127 -27.0929 -27.0929 -26.8204 -26.8204
    19.6697  19.6697  19.8882  19.8882  19.9330  19.9330  20.5642  20.5642
    21.9937  21.9937  22.0910  22.0910  22.2833  22.2833  22.4111  22.4111
    22.6833  22.6833  22.9233  22.9233  24.1405  24.1405  24.4531  24.4531
    25.7359  25.7359  25.8563  25.8563  25.9223  25.9223  26.0556  26.0556
    26.2692  26.2692  26.4191  26.4191  26.4883  26.4883  26.5554  26.5554
    26.7837  26.7837  26.9881  26.9881  27.1087  27.1087  27.5808  27.5808
    27.6484  27.6484  27.8393  27.8393  27.8939  27.8939  28.1500  28.1500
    28.2213  28.2213  28.4483  28.4483  31.0687  31.0687  31.2703  31.2703
    31.3152  31.3152  31.7739  31.7739  31.9761  31.9761  32.4953  32.4953
    33.0157  33.0157  33.5146  33.5146  33.8096  33.8096  34.1398  34.1398
    34.5012  34.5012  36.4746  36.4746  41.5008  41.5008  43.0212  43.0212
    43.6488  43.6488  44.9436  44.9436  45.7932  45.7932  47.7313  47.7313
    49.1880  49.1880  50.4794  50.4794  53.2042  53.2042  53.8433  53.8433
    54.2113  54.2113  55.0664  55.0664  55.6718  55.6718  56.0206  56.0206
    57.7301  57.7301  58.1319  58.1319  58.2536  58.2536  58.6742  58.6742
    59.1131  59.1131  59.3901  59.3901  60.1166  60.1166  60.2005  60.2005
    60.7067  60.7067  61.3761  61.3761  61.6098  61.6098  62.0546  62.0546
    62.5663  62.5663  62.6480  62.6480  62.8291  62.8291  63.0262  63.0262
    63.3876  63.3876  63.8885  63.8885  64.0938  64.0939  64.5027  64.5027
    64.6225  64.6226  65.1400  65.1401  65.5248  65.5249  66.3060  66.3061
    66.4233  66.4234  66.9197  66.9198  67.1532  67.1533  67.8197  67.8198
    68.1489  68.1491  68.7138  68.7140  69.1275  69.1277

          k =-0.5000 0.0000-0.3307 (  4788 PWs)   bands (ev):

   -77.2611 -77.2611 -77.2236 -77.2236 -77.1359 -77.1359 -77.0643 -77.0643
   -77.0553 -77.0553 -76.9687 -76.9687 -68.1032 -68.1032 -68.0990 -68.0990
   -34.4758 -34.4758 -34.4667 -34.4667 -34.4023 -34.4023 -34.3994 -34.3994
   -34.1641 -34.1641 -34.1567 -34.1567 -32.8922 -32.8922 -32.8446 -32.8446
   -32.7866 -32.7866 -32.7238 -32.7238 -32.5939 -32.5939 -32.5928 -32.5928
   -32.4920 -32.4920 -32.4514 -32.4514 -32.3339 -32.3339 -32.2963 -32.2963
   -32.2757 -32.2757 -32.1702 -32.1702 -27.1244 -27.1244 -27.1185 -27.1185
   -27.1132 -27.1132 -27.1123 -27.1123 -27.0637 -27.0637 -27.0594 -27.0594
    19.8591  19.8591  19.8983  19.8983  20.2715  20.2715  20.3162  20.3162
    21.9319  21.9319  22.0697  22.0697  22.2747  22.2747  22.4178  22.4178
    22.4841  22.4841  22.6489  22.6489  24.0713  24.0713  24.1242  24.1242
    25.8506  25.8506  25.9310  25.9310  25.9413  25.9413  26.0972  26.0972
    26.3273  26.3273  26.3835  26.3835  26.6554  26.6554  26.7770  26.7770
    26.8092  26.8092  27.0781  27.0781  27.2425  27.2425  27.5323  27.5323
    27.6549  27.6549  27.7102  27.7102  27.7875  27.7875  28.1082  28.1082
    28.2148  28.2148  28.4631  28.4631  31.5346  31.5346  31.6659  31.6659
    31.8012  31.8012  31.9418  31.9418  31.9645  31.9645  31.9985  31.9985
    32.8681  32.8681  33.4979  33.4979  33.5086  33.5086  33.6473  33.6473
    35.1192  35.1192  35.2127  35.2127  43.0417  43.0417  43.6899  43.6899
    43.7063  43.7063  44.8061  44.8061  44.9830  44.9830  45.5766  45.5766
    51.0228  51.0228  51.2274  51.2274  52.3068  52.3068  53.3650  53.3650
    54.2736  54.2736  54.7403  54.7403  56.3315  56.3315  56.7422  56.7422
    57.4659  57.4659  57.6919  57.6919  58.0687  58.0687  58.5979  58.5979
    59.0937  59.0937  59.6334  59.6334  59.6351  59.6351  60.5947  60.5947
    60.6678  60.6678  60.7888  60.7888  62.0188  62.0188  62.1569  62.1569
    62.1803  62.1803  62.5080  62.5080  62.9276  62.9276  63.4516  63.4516
    63.6276  63.6276  63.8846  63.8846  63.9297  63.9297  64.6787  64.6788
    64.9392  64.9392  64.9980  64.9981  66.0065  66.0065  66.1908  66.1909
    66.5183  66.5183  66.8201  66.8201  66.9458  66.9459  67.5030  67.5031
    67.5139  67.5139  68.8338  68.8339  68.9820  68.9825

          k =-0.5000 0.3076 0.0000 (  4776 PWs)   bands (ev):

   -77.2297 -77.2297 -77.1571 -77.1571 -77.1365 -77.1365 -77.0866 -77.0866
   -77.0358 -77.0358 -76.9681 -76.9681 -68.1003 -68.1003 -68.0868 -68.0868
   -34.7767 -34.7767 -34.7544 -34.7544 -34.5084 -34.5084 -34.0088 -34.0088
   -33.9980 -33.9980 -33.7318 -33.7318 -33.0279 -33.0279 -32.9196 -32.9196
   -32.8061 -32.8061 -32.7388 -32.7388 -32.6505 -32.6505 -32.5139 -32.5139
   -32.5024 -32.5024 -32.4051 -32.4051 -32.3636 -32.3636 -32.2632 -32.2632
   -32.2607 -32.2607 -32.1954 -32.1954 -27.4693 -27.4693 -27.4658 -27.4658
   -27.4109 -27.4109 -26.7941 -26.7941 -26.7782 -26.7782 -26.7137 -26.7137
    19.0031  19.0031  19.7810  19.7810  20.1075  20.1075  20.3801  20.3801
    21.6255  21.6255  22.1561  22.1561  22.3052  22.3052  22.5055  22.5055
    24.1051  24.1051  24.4612  24.4612  24.6213  24.6213  25.2258  25.2258
    25.3625  25.3625  25.5643  25.5643  25.8176  25.8176  25.8961  25.8961
    25.9296  25.9296  25.9805  25.9805  26.0926  26.0926  26.3139  26.3139
    26.5497  26.5497  26.8025  26.8025  26.9025  26.9025  27.4331  27.4331
    27.4711  27.4711  27.5323  27.5323  27.9491  27.9491  28.0582  28.0582
    28.2914  28.2914  28.4439  28.4439  29.8964  29.8964  30.3894  30.3894
    30.6157  30.6157  31.8810  31.8810  32.1333  32.1333  32.7137  32.7137
    33.9615  33.9615  34.3994  34.3994  34.4489  34.4489  35.1862  35.1862
    35.3719  35.3719  38.4663  38.4663  38.5890  38.5890  40.5159  40.5159
    41.6980  41.6980  44.8327  44.8327  48.0911  48.0911  50.0614  50.0614
    50.7583  50.7583  51.2287  51.2287  52.5415  52.5415  53.1716  53.1716
    53.3618  53.3618  55.0214  55.0214  55.6471  55.6471  55.7433  55.7433
    56.7042  56.7042  57.1858  57.1858  57.9469  57.9469  58.7053  58.7053
    58.8631  58.8631  59.0525  59.0525  59.8112  59.8112  60.1955  60.1955
    60.7460  60.7460  61.0706  61.0706  61.5016  61.5016  61.5313  61.5313
    61.8399  61.8399  62.7688  62.7688  62.8508  62.8508  63.8067  63.8067
    63.8162  63.8162  64.3882  64.3883  64.9877  64.9877  65.1256  65.1257
    65.4632  65.4632  65.8904  65.8905  66.2395  66.2395  66.7954  66.7954
    66.8095  66.8096  67.2497  67.2498  67.4487  67.4487  68.3370  68.3372
    68.7972  68.7975  68.9561  68.9563  69.5782  69.5794

          k =-0.5000 0.3076 0.1654 (  4784 PWs)   bands (ev):

   -77.2065 -77.2065 -77.1754 -77.1754 -77.1497 -77.1497 -77.1065 -77.1065
   -77.0322 -77.0322 -76.9898 -76.9898 -68.1064 -68.1064 -68.0917 -68.0917
   -34.7726 -34.7726 -34.7605 -34.7605 -34.4129 -34.4129 -34.0088 -34.0088
   -34.0040 -34.0040 -33.8759 -33.8759 -33.0138 -33.0138 -32.9416 -32.9416
   -32.7841 -32.7841 -32.7130 -32.7130 -32.6472 -32.6472 -32.5275 -32.5275
   -32.4981 -32.4981 -32.4307 -32.4307 -32.3429 -32.3429 -32.2831 -32.2831
   -32.2505 -32.2505 -32.1971 -32.1971 -27.4637 -27.4637 -27.4491 -27.4491
   -27.3231 -27.3231 -26.8344 -26.8344 -26.7789 -26.7789 -26.7758 -26.7758
    19.1783  19.1783  19.7225  19.7225  20.1616  20.1616  20.3914  20.3914
    21.6647  21.6647  22.1365  22.1365  22.2612  22.2612  22.5607  22.5607
    23.7163  23.7163  23.8734  23.8734  24.6210  24.6210  24.8501  24.8501
    25.3885  25.3885  25.6245  25.6245  25.8688  25.8688  25.9037  25.9037
    26.1110  26.1110  26.2212  26.2212  26.3515  26.3515  26.4821  26.4821
    26.6571  26.6571  26.7590  26.7590  27.0599  27.0599  27.2790  27.2790
    27.4300  27.4300  27.7286  27.7286  27.8727  27.8727  28.1035  28.1035
    28.2963  28.2963  28.4435  28.4435  30.0650  30.0650  30.5527  30.5527
    30.8074  30.8074  31.9642  31.9642  32.0695  32.0695  32.6029  32.6029
    34.0135  34.0135  34.1564  34.1564  34.3320  34.3320  34.8537  34.8537
    35.5826  35.5826  37.4023  37.4023  38.8087  38.8087  40.7250  40.7250
    42.3323  42.3323  45.7937  45.7937  48.3425  48.3425  48.5136  48.5136
    50.0299  50.0299  50.7553  50.7553  52.9041  52.9041  53.2355  53.2355
    53.7647  53.7647  55.3843  55.3843  55.8734  55.8734  56.4798  56.4798
    56.7583  56.7583  57.0290  57.0290  57.9187  57.9187  58.5127  58.5127
    58.8441  58.8441  59.1372  59.1372  59.8493  59.8493  60.3328  60.3328
    60.6560  60.6560  60.7642  60.7642  61.4327  61.4327  61.7329  61.7329
    62.0656  62.0656  62.4011  62.4011  62.9006  62.9006  63.3456  63.3456
    64.1676  64.1677  64.3801  64.3801  64.7930  64.7931  65.0552  65.0553
    65.2959  65.2960  65.8256  65.8256  66.4787  66.4788  66.6922  66.6923
    66.8726  66.8726  67.3874  67.3875  67.7883  67.7885  68.0692  68.0693
    68.4880  68.4882  69.1973  69.1974  69.4839  69.4836

          k =-0.5000 0.3076-0.3307 (  4752 PWs)   bands (ev):

   -77.1670 -77.1670 -77.1603 -77.1603 -77.1102 -77.1102 -77.0606 -77.0606
   -77.0066 -77.0066 -76.9580 -76.9580 -68.0753 -68.0753 -68.0729 -68.0729
   -34.7614 -34.7614 -34.7610 -34.7610 -34.1666 -34.1666 -34.1538 -34.1538
   -34.0001 -34.0001 -33.9965 -33.9965 -32.9810 -32.9810 -32.9603 -32.9603
   -32.7423 -32.7423 -32.7181 -32.7181 -32.5801 -32.5801 -32.5773 -32.5773
   -32.4724 -32.4724 -32.4490 -32.4490 -32.3173 -32.3173 -32.2956 -32.2956
   -32.2431 -32.2431 -32.1889 -32.1889 -27.4503 -27.4503 -27.4490 -27.4490
   -27.0700 -27.0700 -27.0671 -27.0671 -26.7826 -26.7826 -26.7763 -26.7763
    19.5099  19.5099  19.5238  19.5238  20.2981  20.2981  20.3219  20.3219
    21.8262  21.8262  21.8631  21.8631  22.4326  22.4326  22.6246  22.6246
    23.3019  23.3019  23.3299  23.3299  24.6614  24.6614  24.7609  24.7609
    25.5127  25.5127  25.5417  25.5417  25.9569  25.9569  25.9767  25.9767
    26.0480  26.0480  26.2749  26.2749  26.4305  26.4305  26.5542  26.5542
    26.7310  26.7310  27.0150  27.0150  27.0989  27.0989  27.2440  27.2440
    27.5163  27.5163  27.6196  27.6196  27.8999  27.8999  28.0479  28.0479
    28.4125  28.4125  28.4350  28.4350  30.4461  30.4461  30.5261  30.5261
    31.3835  31.3835  31.4452  31.4452  32.3858  32.3858  32.5357  32.5357
    33.7586  33.7586  33.9796  33.9796  34.3288  34.3288  34.4531  34.4531
    36.2491  36.2491  36.2735  36.2735  39.5138  39.5138  39.7010  39.7010
    44.4001  44.4001  45.5526  45.5526  48.1350  48.1350  48.4542  48.4542
    49.2652  49.2652  49.7792  49.7792  53.1183  53.1183  53.1405  53.1405
    55.1500  55.1500  55.2285  55.2285  56.0470  56.0470  56.2672  56.2672
    56.8594  56.8594  57.5554  57.5554  57.9799  57.9799  58.1185  58.1185
    58.7039  58.7039  59.0730  59.0730  60.1937  60.1937  60.2540  60.2540
    60.7901  60.7901  60.8702  60.8702  61.2611  61.2611  61.5902  61.5902
    62.0786  62.0786  62.4734  62.4734  63.2830  63.2830  63.5964  63.5964
    63.7687  63.7687  64.2248  64.2249  64.7328  64.7328  64.7471  64.7471
    65.2824  65.2824  65.9408  65.9408  65.9910  65.9910  66.7291  66.7292
    67.1371  67.1371  67.2385  67.2385  68.1940  68.1941  68.3977  68.3978
    68.8053  68.8054  68.8960  68.8962  69.6363  69.6875

     the Fermi energy is    61.6275 ev

!    total energy              =   -7021.80337905 Ry
     Harris-Foulkes estimate   =   -7021.80340813 Ry
     estimated scf accuracy    <       0.00003204 Ry

     The total energy is the sum of the following terms:

     one-electron contribution =    -981.92434292 Ry
     hartree contribution      =    1033.52930484 Ry
     xc contribution           =    -572.53450441 Ry
     ewald contribution        =   -6500.16006422 Ry
     smearing contrib. (-TS)   =      -0.71377234 Ry

     convergence has been achieved in  10 iterations

     Forces acting on atoms (Ry/au):

     atom    1 type  1   force =     1.12453009   -1.20547053   -1.57858185
     atom    2 type  1   force =    -1.12453009   -1.20547053    1.57858185
     atom    3 type  1   force =     1.12453009    1.20547053   -1.57858185
     atom    4 type  1   force =    -1.96533496   -0.77273604    0.00000000
     atom    5 type  1   force =    -1.12453009   -1.20547053   -1.57858185
     atom    6 type  1   force =     1.12453009   -1.20547053    1.57858185
     atom    7 type  1   force =     1.96533496   -0.77273604    0.00000000
     atom    8 type  1   force =    -1.12453009    1.20547053   -1.57858185
     atom    9 type  1   force =     1.12453009    1.20547053    1.57858185
     atom   10 type  1   force =     1.96533496    0.77273604    0.00000000
     atom   11 type  1   force =    -1.12453009    1.20547053    1.57858185
     atom   12 type  1   force =    -1.96533496    0.77273604    0.00000000
     atom   13 type  2   force =     0.00000000    0.00000000    0.00000000
     atom   14 type  2   force =     0.00000000    0.00000000    0.00000000
     atom   15 type  2   force =     0.00000000    0.00000000    0.00000000
     atom   16 type  2   force =     0.00000000    0.00000000    0.00000000

     Total force =     7.714650     Total SCF correction =     0.000000


     entering subroutine stress ...

          total   stress  (Ry/bohr**3)                   (kbar)     P=12102.52
   0.08146329   0.00000000   0.00000000      11983.66      0.00      0.00
   0.00000000   0.08307776   0.00000000          0.00  12221.16      0.00
   0.00000000   0.00000000   0.08227287          0.00      0.00  12102.75


     BFGS Geometry Optimization

     number of scf cycles    =   1
     number of bfgs steps    =   0

     enthalpy new            =   -7021.8033790547 Ry

     new trust radius        =       0.5000000000 bohr
     new conv_thr            =       0.0001000000 Ry

     new unit-cell volume =   1384.00888 a.u.^3 (   205.08895 Ang^3 )

CELL_PARAMETERS (alat=  8.80076499)
   1.073350189   0.000000000   0.000000000
   0.000000000   1.164841411   0.000000000
   0.000000000   0.000000000   1.623937705

ATOMIC_POSITIONS (crystal)
Fe       0.351896035   0.164084046   0.918205197
Fe       0.148103965   0.664084046   0.581794803
Fe       0.851896035   0.335915954   0.418205197
Fe       0.331621049   0.447291086   0.250000000
Fe       0.148103965   0.664084046   0.918205197
Fe       0.351896035   0.164084046   0.581794803
Fe       0.168378951   0.947291086   0.250000000
Fe       0.648103965   0.835915954   0.418205197
Fe       0.851896035   0.335915954   0.081794803
Fe       0.668378951   0.552708914   0.750000000
Fe       0.648103965   0.835915954   0.081794803
Fe       0.831621049   0.052708914   0.750000000
C        0.000000000   0.000000000   0.000000000
C        0.500000000   0.500000000   0.000000000
C        0.500000000   0.500000000   0.500000000
C        0.000000000   0.000000000   0.500000000



     Writing output data file Prototype-La-oP16-Fe3C.save
     NEW-OLD atomic charge density approx. for the potential
     NEW k-points:
        k(    1) = (   0.0000000   0.0000000   0.0000000), wk =   0.0833333
        k(    2) = (   0.0000000   0.0000000   0.1539468), wk =   0.1666667
        k(    3) = (   0.0000000   0.0000000  -0.3078936), wk =   0.0833333
        k(    4) = (   0.0000000   0.2861620   0.0000000), wk =   0.1666667
        k(    5) = (   0.0000000   0.2861620   0.1539468), wk =   0.3333333
        k(    6) = (   0.0000000   0.2861620  -0.3078936), wk =   0.1666667
        k(    7) = (  -0.4658312   0.0000000   0.0000000), wk =   0.0833333
        k(    8) = (  -0.4658312   0.0000000   0.1539468), wk =   0.1666667
        k(    9) = (  -0.4658312   0.0000000  -0.3078936), wk =   0.0833333
        k(   10) = (  -0.4658312   0.2861620   0.0000000), wk =   0.1666667
        k(   11) = (  -0.4658312   0.2861620   0.1539468), wk =   0.3333333
        k(   12) = (  -0.4658312   0.2861620  -0.3078936), wk =   0.1666667

     total cpu time spent up to now is      675.7 secs

     Self-consistent Calculation

     iteration #  1     ecut=    40.00 Ry     beta=0.70
     CG style diagonalization
     c_bands:  1 eigenvalues not converged
     c_bands:  4 eigenvalues not converged
     c_bands:  2 eigenvalues not converged
     c_bands:  2 eigenvalues not converged
     c_bands:  4 eigenvalues not converged
     c_bands:  2 eigenvalues not converged
     c_bands:  2 eigenvalues not converged
     c_bands:  1 eigenvalues not converged
     c_bands:  2 eigenvalues not converged
     c_bands:  4 eigenvalues not converged
     c_bands:  1 eigenvalues not converged
     ethr =  1.00E-06,  avg # of iterations = 25.8

     total cpu time spent up to now is      889.2 secs

     total energy              =   -7000.60171484 Ry
     Harris-Foulkes estimate   =   -7081.51942855 Ry
     estimated scf accuracy    <      98.97655744 Ry

     iteration #  2     ecut=    40.00 Ry     beta=0.70
     CG style diagonalization
     ethr =  1.00E-02,  avg # of iterations =  4.6

     total cpu time spent up to now is      926.1 secs

     total energy              =   -7020.93746043 Ry
     Harris-Foulkes estimate   =   -7054.57277191 Ry
     estimated scf accuracy    <      55.60285246 Ry

     iteration #  3     ecut=    40.00 Ry     beta=0.70
     CG style diagonalization
     ethr =  1.00E-02,  avg # of iterations =  3.8

     total cpu time spent up to now is      956.2 secs

     total energy              =   -7036.22261233 Ry
     Harris-Foulkes estimate   =   -7041.51362469 Ry
     estimated scf accuracy    <      11.23938679 Ry

     iteration #  4     ecut=    40.00 Ry     beta=0.70
     CG style diagonalization
     ethr =  2.84E-03,  avg # of iterations =  3.5

     total cpu time spent up to now is      983.0 secs

     total energy              =   -7038.44091286 Ry
     Harris-Foulkes estimate   =   -7038.49405754 Ry
     estimated scf accuracy    <       0.08707753 Ry

     iteration #  5     ecut=    40.00 Ry     beta=0.70
     CG style diagonalization
     c_bands:  1 eigenvalues not converged
     c_bands:  3 eigenvalues not converged
     c_bands:  3 eigenvalues not converged
     c_bands:  1 eigenvalues not converged
     c_bands:  2 eigenvalues not converged
     ethr =  2.20E-05,  avg # of iterations =  5.1

     total cpu time spent up to now is     1024.9 secs

     total energy              =   -7038.51969406 Ry
     Harris-Foulkes estimate   =   -7038.53261795 Ry
     estimated scf accuracy    <       0.02277500 Ry

     iteration #  6     ecut=    40.00 Ry     beta=0.70
     CG style diagonalization
     c_bands:  1 eigenvalues not converged
     c_bands:  1 eigenvalues not converged
     c_bands:  1 eigenvalues not converged
     ethr =  5.75E-06,  avg # of iterations =  3.9

     total cpu time spent up to now is     1056.1 secs

     total energy              =   -7038.52418824 Ry
     Harris-Foulkes estimate   =   -7038.52648294 Ry
     estimated scf accuracy    <       0.00427013 Ry

     iteration #  7     ecut=    40.00 Ry     beta=0.70
     CG style diagonalization
     c_bands:  1 eigenvalues not converged
     c_bands:  1 eigenvalues not converged
     c_bands:  1 eigenvalues not converged
     ethr =  1.08E-06,  avg # of iterations =  3.6

     total cpu time spent up to now is     1084.7 secs

     total energy              =   -7038.52526881 Ry
     Harris-Foulkes estimate   =   -7038.52553540 Ry
     estimated scf accuracy    <       0.00048494 Ry

     iteration #  8     ecut=    40.00 Ry     beta=0.70
     CG style diagonalization
     c_bands:  1 eigenvalues not converged
     ethr =  1.22E-07,  avg # of iterations =  3.7

     total cpu time spent up to now is     1113.4 secs

     End of self-consistent calculation

          k = 0.0000 0.0000 0.0000 (  4785 PWs)   bands (ev):

   -86.8632 -86.8207 -86.8176 -86.8033 -86.7906 -86.7741 -86.7393 -86.7173
   -86.6349 -86.6316 -86.5625 -86.4974 -77.3570 -77.3292 -77.2892 -77.1683
   -44.3781 -44.3726 -44.3527 -44.3487 -44.1496 -44.1477 -44.1446 -44.1391
   -44.1377 -44.1355 -43.9728 -43.9556 -43.5884 -43.5807 -43.5340 -43.5279
   -43.5121 -43.5069 -43.4777 -43.4514 -43.3543 -43.3393 -43.3331 -43.3183
   -43.2831 -43.2783 -43.2738 -43.2703 -43.2595 -43.2570 -43.2231 -43.2194
   -43.0926 -43.0905 -43.0359 -43.0329 -37.4960 -37.4892 -37.4566 -37.4492
   -37.3807 -37.3619 -37.2866 -37.2723 -37.2721 -37.2717 -37.2001 -37.1972
    11.4760  11.5466  11.7494  12.0426  12.0634  12.3165  12.3947  12.5627
    13.6345  14.0329  14.1271  14.3617  14.4394  14.8384  14.9398  15.1567
    15.1833  15.1900  15.2341  15.2529  15.3323  15.3370  15.4404  15.4788
    15.4838  15.5716  15.5957  15.5982  15.6017  15.7142  15.7491  15.8027
    15.8201  15.8250  15.8753  16.0254  16.0607  16.1376  16.1392  16.2116
    16.3816  16.4370  16.5734  16.5860  16.7043  16.7647  16.7786  16.8786
    16.9920  17.0719  17.1524  17.2280  17.2614  17.2848  17.3055  17.3879
    17.4920  17.4944  17.5624  17.6899  19.0716  19.1748  19.3890  19.4779
    19.6839  19.8502  19.9277  19.9612  20.8497  20.9310  20.9474  21.3017
    22.0737  22.1436  22.1509  22.1662  22.2942  22.7332  22.7403  23.0132
    23.2324  25.9734  27.9922  29.2681  30.0324  31.1641  31.8077  32.5860
    32.8432  32.8753  33.5105  36.4453  36.7599  36.8698  37.1155  37.1193
    37.4131  37.4601  38.5208  38.9626  39.2822  39.7627  39.8142  40.4200
    40.6807  41.0158  42.5642  42.9029  42.9701  43.1145  43.7388  44.9769
    46.1660  46.2983  46.6029  46.9240  47.1391  47.2967  47.3497  48.0467
    48.1466  48.2053  48.6153  48.9214  49.4192  49.6399  49.8498  49.8937
    50.2051  50.3430  50.5577  50.7607  50.8724  50.9847  51.0664  51.1075
    51.2985  51.4025  51.4220  51.6001  51.6802  51.6972  51.6995  52.2817
    52.2975  52.3648  52.7785  52.8429  53.2508  53.8003  54.3139  54.4891
    54.6409  54.6511  54.7116  54.9498  55.0603  55.0631  55.1463  55.2625
    55.3611  55.5741  55.8838  56.3289  56.3581  56.5337  56.5667  56.9732
    57.2024  57.3462  57.5365  57.6396  57.6768  57.8268

          k = 0.0000 0.0000 0.1539 (  4759 PWs)   bands (ev):

   -86.8513 -86.8437 -86.7945 -86.7626 -86.7423 -86.6897 -86.6780 -86.6536
   -86.6478 -86.5854 -86.4846 -86.4332 -77.3354 -77.2525 -77.2251 -77.1980
   -44.3768 -44.3724 -44.3495 -44.3422 -44.1472 -44.1450 -44.1448 -44.1362
   -44.1106 -44.1105 -43.9917 -43.9791 -43.5787 -43.5688 -43.5503 -43.5278
   -43.5066 -43.4828 -43.4803 -43.4525 -43.3453 -43.3316 -43.3289 -43.3115
   -43.3005 -43.2793 -43.2735 -43.2613 -43.2509 -43.2437 -43.2257 -43.2219
   -43.0912 -43.0888 -43.0294 -43.0291 -37.4955 -37.4892 -37.4512 -37.4489
   -37.3551 -37.3292 -37.2836 -37.2729 -37.2687 -37.2666 -37.2221 -37.2203
    11.4860  11.5421  11.8598  12.0541  12.0695  12.4021  12.4321  12.4836
    13.6869  14.0886  14.1422  14.3564  14.4985  14.7583  14.7731  14.9903
    15.0357  15.0875  15.1358  15.1911  15.2315  15.2593  15.3022  15.3963
    15.4328  15.4915  15.5386  15.5752  15.6180  15.7367  15.7503  15.8087
    15.8992  15.9041  15.9720  16.0733  16.1732  16.2522  16.3220  16.3977
    16.4048  16.5262  16.5444  16.5838  16.7698  16.7776  16.7917  16.9616
    16.9858  17.1694  17.1843  17.1968  17.2162  17.2665  17.2724  17.3831
    17.4660  17.4669  17.5421  17.5717  19.1406  19.3257  19.3567  19.6886
    19.8543  20.0204  20.0345  20.1042  20.7300  21.0220  21.0627  21.2468
    21.9036  21.9498  22.0004  22.1960  22.2115  22.5672  22.7681  22.9594
    23.4084  25.0570  29.3813  29.4352  30.2339  30.9073  31.3572  31.9649
    32.4835  33.9110  34.2340  34.6249  35.4638  37.3389  37.3896  37.5833
    38.0914  38.2354  38.3842  38.6259  38.9296  39.6471  40.4810  40.5310
    40.6337  41.8209  42.0221  42.1095  43.0841  43.3331  44.3080  44.3254
    45.9942  46.5016  46.9478  46.9923  47.3460  47.3952  47.7319  48.2720
    48.3135  48.3578  48.3696  48.5103  48.8784  49.4913  49.5992  49.7653
    49.7837  50.0879  50.1872  50.3816  50.4115  50.6743  51.0667  51.2005
    51.3736  51.6067  51.8331  52.0187  52.0426  52.1881  52.2043  52.3664
    52.4903  52.5737  52.8137  52.9250  53.2737  53.6275  53.6816  54.0994
    54.1630  54.2203  54.5539  55.0678  55.1121  55.1314  55.2642  55.7373
    55.7878  55.8260  56.1813  56.2104  56.2242  56.6091  56.7404  57.0604
    57.0660  57.2504  57.3179  57.5775  57.6831  57.7283

          k = 0.0000 0.0000-0.3079 (  4758 PWs)   bands (ev):

   -86.8896 -86.8896 -86.8441 -86.8441 -86.6777 -86.6777 -86.6264 -86.6264
   -86.5964 -86.5964 -86.4503 -86.4503 -77.2633 -77.2633 -77.2379 -77.2379
   -44.3738 -44.3738 -44.3460 -44.3460 -44.1438 -44.1438 -44.1384 -44.1384
   -44.0550 -44.0550 -44.0481 -44.0481 -43.5719 -43.5719 -43.5491 -43.5491
   -43.4861 -43.4861 -43.4659 -43.4659 -43.3288 -43.3288 -43.3276 -43.3276
   -43.2903 -43.2903 -43.2756 -43.2756 -43.2346 -43.2346 -43.2304 -43.2304
   -43.0874 -43.0874 -43.0287 -43.0287 -37.4935 -37.4935 -37.4503 -37.4503
   -37.3038 -37.3038 -37.2799 -37.2799 -37.2681 -37.2681 -37.2565 -37.2565
    11.5154  11.5154  12.0099  12.0099  12.2405  12.2405  12.4790  12.4790
    14.0101  14.0101  14.1626  14.1626  14.4759  14.4759  14.7350  14.7350
    14.9904  14.9904  15.1254  15.1254  15.1902  15.1902  15.3299  15.3299
    15.5016  15.5016  15.5679  15.5679  15.7058  15.7058  15.7570  15.7570
    15.8719  15.8719  15.9598  15.9598  16.3873  16.3873  16.4041  16.4041
    16.5265  16.5265  16.7006  16.7006  16.7785  16.7785  16.8278  16.8278
    17.1226  17.1226  17.1500  17.1500  17.2238  17.2238  17.3516  17.3516
    17.4441  17.4441  17.4721  17.4721  19.2612  19.2612  19.6254  19.6254
    20.1091  20.1091  20.3455  20.3455  20.7801  20.7801  21.2511  21.2511
    21.6893  21.6893  21.9258  21.9258  22.3239  22.3239  22.8481  22.8481
    24.0078  24.0078  29.9001  29.9001  31.0558  31.0558  31.6875  31.6875
    31.9647  31.9647  34.5665  34.5665  36.2557  36.2557  37.8216  37.8216
    37.8886  37.8886  39.0926  39.0926  39.9048  39.9048  40.2861  40.2861
    40.3886  40.3886  41.6845  41.6845  44.1974  44.1974  45.0779  45.0779
    45.9548  45.9548  46.0852  46.0852  47.3014  47.3014  48.1942  48.1942
    48.3861  48.3861  48.5529  48.5529  49.1581  49.1581  49.2262  49.2262
    49.7047  49.7047  50.2401  50.2401  50.3580  50.3580  51.4962  51.4962
    51.6253  51.6253  51.8478  51.8478  52.1845  52.1845  52.7216  52.7216
    52.7396  52.7396  53.3103  53.3103  53.3716  53.3716  53.4516  53.4516
    53.6084  53.6084  54.5321  54.5321  55.1942  55.1942  55.4339  55.4339
    55.9887  55.9887  56.1767  56.1767  56.4263  56.4263  56.8697  56.8697
    57.2088  57.2088  57.7106  57.7106  57.9739  57.9740

          k = 0.0000 0.2862 0.0000 (  4761 PWs)   bands (ev):

   -86.8312 -86.8103 -86.8059 -86.7747 -86.7251 -86.7137 -86.6872 -86.6609
   -86.6352 -86.5751 -86.5169 -86.4764 -77.2776 -77.2690 -77.2581 -77.2183
   -44.3247 -44.3195 -44.2971 -44.2928 -44.2105 -44.2080 -44.1961 -44.1891
   -44.1384 -44.1337 -43.9667 -43.9535 -43.5662 -43.5561 -43.5391 -43.5250
   -43.5042 -43.4949 -43.4784 -43.4679 -43.3499 -43.3435 -43.3213 -43.3186
   -43.2816 -43.2780 -43.2753 -43.2661 -43.2604 -43.2517 -43.2199 -43.2167
   -43.0764 -43.0709 -43.0469 -43.0396 -37.4436 -37.4406 -37.4087 -37.4025
   -37.3811 -37.3615 -37.3299 -37.3153 -37.3142 -37.3116 -37.1989 -37.1964
    11.8177  11.8826  11.9017  12.1513  12.1667  12.2069  12.4755  12.5387
    13.8864  14.0589  14.0651  14.1438  14.2426  14.3291  14.3762  14.4309
    14.4758  14.6063  14.6889  14.7440  15.0869  15.2216  15.3390  15.4146
    15.5493  15.5966  15.6581  15.7268  15.7317  15.8110  15.9334  15.9717
    16.0993  16.1131  16.1485  16.1769  16.1850  16.3339  16.3528  16.4575
    16.4890  16.5857  16.6106  16.6435  16.6644  16.7915  16.8155  16.9103
    17.0362  17.0962  17.1211  17.1324  17.3487  17.3815  17.4200  17.4218
    17.4738  17.5022  17.5538  17.5720  19.7638  19.8587  19.9938  20.0099
    20.0703  20.1168  20.2926  20.4912  20.7137  20.7470  21.1365  21.3159
    21.7052  21.8850  21.9249  21.9430  22.0283  22.1751  22.3453  22.4410
    23.9061  26.1231  26.5650  28.6138  28.7290  30.6972  32.1179  32.6296
    33.8899  34.6278  34.8370  35.1004  35.9659  36.4193  36.8107  37.5528
    37.6082  37.7433  38.5119  38.6922  38.9735  39.0904  39.6389  39.9945
    41.1437  42.9201  43.6116  43.6882  43.7657  45.1996  45.3560  45.5328
    45.7104  45.9962  46.0155  46.3920  46.8664  46.9091  47.2719  47.3310
    47.8024  48.0932  48.2278  48.2978  48.6955  48.7531  49.0097  49.5541
    49.6631  49.8501  49.8639  50.3251  50.5160  50.6891  50.9086  50.9910
    51.0070  51.5552  51.8010  51.8739  52.2806  52.2964  52.3526  52.6799
    52.8028  53.2526  53.3279  53.3740  53.4764  53.7900  53.8531  53.8808
    53.9495  54.3861  54.4039  54.5382  54.5850  54.6103  54.7595  55.2938
    55.3659  55.5315  55.9511  56.1775  56.2170  56.2517  56.4753  56.7137
    56.7593  57.2358  57.2504  57.3304  57.4510  57.6815

          k = 0.0000 0.2862 0.1539 (  4779 PWs)   bands (ev):

   -86.8545 -86.8404 -86.8104 -86.8059 -86.7921 -86.7362 -86.7211 -86.7027
   -86.6442 -86.5785 -86.5615 -86.5407 -77.3331 -77.2738 -77.2664 -77.2432
   -44.3305 -44.3209 -44.3014 -44.2949 -44.2129 -44.2088 -44.1981 -44.1919
   -44.1141 -44.1113 -43.9935 -43.9858 -43.5642 -43.5565 -43.5438 -43.5342
   -43.5011 -43.4897 -43.4833 -43.4707 -43.3448 -43.3397 -43.3195 -43.3144
   -43.2989 -43.2872 -43.2795 -43.2681 -43.2532 -43.2501 -43.2233 -43.2217
   -43.0797 -43.0757 -43.0471 -43.0434 -37.4438 -37.4397 -37.4065 -37.4062
   -37.3638 -37.3432 -37.3353 -37.3187 -37.3098 -37.3096 -37.2238 -37.2212
    11.8278  11.8896  11.9951  12.1646  12.1973  12.2702  12.4861  12.4914
    13.9034  14.0530  14.1187  14.1626  14.2383  14.2995  14.3744  14.4006
    14.4709  14.5517  14.6492  14.7177  14.8245  14.9322  15.0518  15.0566
    15.6282  15.6421  15.7269  15.7366  15.8814  15.9126  15.9912  16.0383
    16.0654  16.0788  16.1767  16.1909  16.3618  16.3629  16.4165  16.4839
    16.5328  16.5656  16.6102  16.6405  16.6875  16.7577  16.8023  16.9119
    17.0826  17.1215  17.1299  17.1654  17.2964  17.3089  17.3988  17.4486
    17.4644  17.4760  17.5283  17.5604  19.9301  20.1314  20.1451  20.1486
    20.2091  20.2549  20.3346  20.4575  20.8206  20.8349  20.9829  21.2219
    21.7001  21.7156  21.8073  21.8122  21.9047  22.1263  22.1425  22.3502
    24.0901  25.7071  26.3211  27.8447  30.0253  31.7748  32.2806  32.9034
    33.4404  34.1799  34.7680  34.9633  35.1182  35.8712  36.5264  36.5289
    36.8752  38.1952  38.5503  38.7189  39.8534  40.0012  41.0161  41.1289
    41.7809  42.6864  42.9816  43.2527  43.4391  44.3530  44.7216  44.9684
    45.3658  46.1562  46.1870  46.4467  47.0976  47.2510  47.6055  47.7010
    47.8324  47.9056  48.2265  48.2954  48.5526  48.6151  48.9166  49.6775
    49.8351  49.8866  49.9544  50.1569  50.5276  50.5737  50.9914  51.0802
    51.4009  51.8424  51.8628  51.9581  52.1434  52.1487  52.4484  52.4603
    52.8189  53.1825  53.2036  53.2612  53.3254  53.3994  53.5147  53.5277
    53.7717  54.0881  54.3470  54.5583  54.8005  54.9219  55.2158  55.2835
    55.5801  55.5812  55.9381  56.0196  56.1727  56.4907  56.6046  56.7950
    56.9299  57.0303  57.1924  57.3613  57.6637  57.9379

          k = 0.0000 0.2862-0.3079 (  4780 PWs)   bands (ev):

   -86.8617 -86.8617 -86.8027 -86.8027 -86.7451 -86.7451 -86.7203 -86.7203
   -86.6120 -86.6120 -86.5604 -86.5604 -77.2960 -77.2960 -77.2651 -77.2651
   -44.3237 -44.3237 -44.2964 -44.2964 -44.2131 -44.2131 -44.1960 -44.1960
   -44.0540 -44.0540 -44.0521 -44.0521 -43.5528 -43.5528 -43.5450 -43.5450
   -43.4931 -43.4931 -43.4811 -43.4811 -43.3263 -43.3263 -43.3241 -43.3241
   -43.2907 -43.2907 -43.2820 -43.2820 -43.2393 -43.2393 -43.2351 -43.2351
   -43.0788 -43.0788 -43.0462 -43.0462 -37.4404 -37.4404 -37.4068 -37.4068
   -37.3386 -37.3386 -37.3175 -37.3175 -37.2797 -37.2797 -37.2784 -37.2784
    11.8597  11.8597  12.1538  12.1538  12.3089  12.3089  12.4438  12.4438
    14.0724  14.0724  14.1378  14.1378  14.2098  14.2098  14.3146  14.3146
    14.4695  14.4695  14.6355  14.6355  14.7536  14.7536  14.8471  14.8471
    15.6990  15.6990  15.7300  15.7300  15.9241  15.9241  16.0225  16.0225
    16.1305  16.1305  16.2318  16.2318  16.3722  16.3722  16.5039  16.5039
    16.5524  16.5524  16.6473  16.6473  16.7187  16.7187  16.8582  16.8582
    17.1076  17.1076  17.2103  17.2103  17.2859  17.2859  17.3122  17.3122
    17.4956  17.4956  17.5492  17.5492  20.1250  20.1250  20.3451  20.3451
    20.5053  20.5053  20.5677  20.5677  20.7989  20.7989  21.0653  21.0653
    21.4681  21.4681  21.6478  21.6478  21.8512  21.8512  22.2146  22.2146
    24.7011  24.7011  26.9100  26.9100  32.3569  32.3569  32.7700  32.7700
    33.0778  33.0778  34.3268  34.3268  35.2146  35.2146  35.6097  35.6097
    37.5493  37.5493  40.2626  40.2626  40.2960  40.2960  41.3941  41.3941
    41.7505  41.7505  42.6841  42.6841  43.6931  43.6931  45.0721  45.0721
    45.5329  45.5329  46.5759  46.5759  46.6061  46.6061  47.6289  47.6289
    47.9762  47.9762  47.9926  47.9926  48.8419  48.8419  49.6624  49.6624
    49.6838  49.6838  50.0087  50.0087  50.5458  50.5458  51.0520  51.0520
    51.9626  51.9626  51.9697  51.9697  52.2009  52.2009  52.5314  52.5314
    52.8151  52.8151  52.8852  52.8852  53.2774  53.2774  53.4246  53.4246
    53.8362  53.8363  54.4588  54.4588  54.9863  54.9863  55.3208  55.3208
    55.6892  55.6892  55.9536  55.9536  56.4147  56.4147  56.4152  56.4152
    57.3295  57.3295  57.6993  57.6993  57.8956  57.8956

          k =-0.4658 0.0000 0.0000 (  4798 PWs)   bands (ev):

   -86.9473 -86.9473 -86.8261 -86.8261 -86.7836 -86.7836 -86.7515 -86.7515
   -86.5959 -86.5959 -86.5556 -86.5556 -77.3139 -77.3139 -77.2850 -77.2850
   -44.2732 -44.2732 -44.2585 -44.2585 -44.2585 -44.2585 -44.2538 -44.2538
   -44.1402 -44.1402 -43.9610 -43.9610 -43.5563 -43.5563 -43.5466 -43.5466
   -43.4958 -43.4958 -43.4807 -43.4807 -43.3484 -43.3484 -43.3172 -43.3172
   -43.2840 -43.2840 -43.2781 -43.2781 -43.2697 -43.2697 -43.2207 -43.2207
   -43.0930 -43.0930 -43.0378 -43.0378 -37.4068 -37.4068 -37.3944 -37.3944
   -37.3753 -37.3753 -37.3613 -37.3613 -37.3366 -37.3366 -37.2022 -37.2022
    11.9733  11.9733  12.0807  12.0807  12.1374  12.1374  12.6129  12.6129
    13.9443  13.9443  13.9717  13.9717  14.0530  14.0530  14.2900  14.2900
    14.3525  14.3525  14.5753  14.5753  14.9909  14.9909  15.4557  15.4557
    15.5753  15.5753  15.6824  15.6824  15.8712  15.8712  15.9672  15.9672
    16.0736  16.0736  16.2440  16.2440  16.2731  16.2731  16.4687  16.4687
    16.5465  16.5465  16.6039  16.6039  16.6938  16.6938  17.1076  17.1076
    17.1523  17.1523  17.1594  17.1594  17.2778  17.2778  17.3906  17.3906
    17.4487  17.4487  17.6168  17.6168  20.0319  20.0319  20.1695  20.1695
    20.3046  20.3046  20.6842  20.6842  20.7542  20.7542  21.2766  21.2766
    21.3572  21.3572  21.6913  21.6913  22.1065  22.1065  22.2924  22.2924
    25.0912  25.0912  27.6522  27.6522  30.0147  30.0147  32.3421  32.3421
    32.5256  32.5256  34.4553  34.4553  35.1237  35.1237  36.7203  36.7203
    38.0563  38.0563  38.3111  38.3111  40.5952  40.5952  41.8229  41.8229
    42.6939  42.6939  43.6343  43.6343  44.5784  44.5784  44.8864  44.8864
    46.5433  46.5433  47.2592  47.2592  47.3998  47.3998  47.5007  47.5007
    48.0945  48.0945  48.3918  48.3918  48.7528  48.7528  49.4999  49.4999
    50.0666  50.0666  50.3867  50.3867  50.9744  50.9744  51.2799  51.2799
    51.2914  51.2914  51.6834  51.6834  51.7315  51.7315  51.9268  51.9268
    52.5689  52.5689  53.0218  53.0218  53.1745  53.1745  53.3057  53.3057
    53.6125  53.6125  53.7443  53.7443  54.1643  54.1643  54.9154  54.9154
    54.9554  54.9554  55.1036  55.1037  55.2558  55.2558  56.4237  56.4237
    57.1421  57.1422  57.1957  57.1957  57.4208  57.4213

          k =-0.4658 0.0000 0.1539 (  4784 PWs)   bands (ev):

   -86.9007 -86.9007 -86.8178 -86.8178 -86.7416 -86.7416 -86.7246 -86.7246
   -86.6259 -86.6259 -86.5259 -86.5259 -77.2872 -77.2872 -77.2709 -77.2709
   -44.2732 -44.2732 -44.2655 -44.2655 -44.2519 -44.2519 -44.2504 -44.2504
   -44.1116 -44.1116 -43.9845 -43.9845 -43.5534 -43.5534 -43.5429 -43.5429
   -43.4961 -43.4961 -43.4773 -43.4773 -43.3406 -43.3406 -43.3130 -43.3130
   -43.2968 -43.2968 -43.2796 -43.2796 -43.2555 -43.2555 -43.2233 -43.2233
   -43.0905 -43.0905 -43.0355 -43.0355 -37.4003 -37.4003 -37.3924 -37.3924
   -37.3692 -37.3692 -37.3610 -37.3610 -37.3243 -37.3243 -37.2216 -37.2216
    12.0299  12.0299  12.1236  12.1236  12.1678  12.1678  12.5887  12.5887
    13.9225  13.9225  13.9853  13.9853  14.0761  14.0761  14.2784  14.2784
    14.3413  14.3413  14.5335  14.5335  14.8076  14.8076  14.9456  14.9456
    15.7283  15.7283  15.8200  15.8200  15.8994  15.8994  16.0036  16.0036
    16.2258  16.2258  16.2851  16.2851  16.3468  16.3468  16.3719  16.3719
    16.5556  16.5556  16.6700  16.6700  16.7803  16.7803  17.0533  17.0533
    17.1333  17.1333  17.1714  17.1714  17.2772  17.2772  17.4045  17.4045
    17.4742  17.4742  17.5638  17.5638  20.2601  20.2601  20.3795  20.3795
    20.4590  20.4590  20.6948  20.6948  20.7379  20.7379  21.1116  21.1116
    21.3969  21.3969  21.6691  21.6691  21.9167  21.9167  22.0867  22.0867
    25.2722  25.2722  26.8430  26.8430  31.2381  31.2381  32.4974  32.4974
    32.7231  32.7231  34.0336  34.0336  34.4050  34.4050  36.3435  36.3435
    37.8541  37.8541  38.8597  38.8597  41.5198  41.5198  41.9687  41.9687
    42.1349  42.1349  43.2719  43.2719  44.4547  44.4547  45.0120  45.0120
    46.6029  46.6029  47.1191  47.1191  47.5509  47.5509  47.9162  47.9162
    48.0637  48.0637  48.4658  48.4658  48.9204  48.9204  49.2228  49.2228
    49.7826  49.7826  50.2136  50.2136  50.6758  50.6758  51.2505  51.2505
    51.5039  51.5039  51.8173  51.8173  51.9328  51.9328  52.2750  52.2750
    52.4855  52.4855  52.9700  52.9700  53.1367  53.1367  53.4192  53.4192
    53.4546  53.4546  54.1073  54.1073  54.2948  54.2948  54.7110  54.7110
    54.8818  54.8818  55.0682  55.0682  55.9115  55.9115  56.1424  56.1424
    56.4691  56.4691  56.8118  56.8118  57.3590  57.3590

          k =-0.4658 0.0000-0.3079 (  4788 PWs)   bands (ev):

   -86.9849 -86.9849 -86.8621 -86.8621 -86.7586 -86.7586 -86.6360 -86.6360
   -86.6269 -86.6269 -86.5114 -86.5114 -77.2903 -77.2903 -77.2830 -77.2830
   -44.2744 -44.2744 -44.2703 -44.2703 -44.2531 -44.2531 -44.2463 -44.2463
   -44.0495 -44.0495 -44.0495 -44.0495 -43.5525 -43.5525 -43.5383 -43.5383
   -43.4984 -43.4984 -43.4762 -43.4762 -43.3256 -43.3256 -43.3209 -43.3209
   -43.2956 -43.2956 -43.2948 -43.2948 -43.2428 -43.2428 -43.2352 -43.2352
   -43.0924 -43.0924 -43.0328 -43.0328 -37.3955 -37.3955 -37.3923 -37.3923
   -37.3635 -37.3635 -37.3628 -37.3628 -37.2781 -37.2781 -37.2776 -37.2776
    12.0675  12.0675  12.0993  12.0993  12.4122  12.4122  12.4418  12.4418
    13.8981  13.8981  13.9864  13.9864  14.1252  14.1252  14.2062  14.2062
    14.3822  14.3822  14.4608  14.4608  14.6244  14.6244  14.7183  14.7183
    15.7661  15.7661  15.7850  15.7850  15.9607  15.9607  16.1126  16.1126
    16.1782  16.1782  16.2838  16.2838  16.3861  16.3861  16.4891  16.4891
    16.5249  16.5249  16.7156  16.7156  16.8977  16.8977  16.9914  16.9914
    17.1375  17.1375  17.1727  17.1727  17.2278  17.2278  17.3824  17.3824
    17.4951  17.4951  17.5568  17.5568  20.5801  20.5801  20.6469  20.6469
    20.6938  20.6938  20.7121  20.7121  20.8112  20.8112  20.8372  20.8372
    21.3290  21.3290  21.6522  21.6522  21.7139  21.7139  21.7800  21.7800
    25.8501  25.8501  25.8688  25.8688  32.7029  32.7029  32.8528  32.8528
    33.0624  33.0624  33.5465  33.5465  34.0685  34.0685  34.1838  34.1838
    39.3235  39.3235  39.5455  39.5455  40.5430  40.5430  41.8892  41.8892
    42.0448  42.0448  42.7711  42.7711  45.4571  45.4571  45.7104  45.7104
    46.4394  46.4394  46.6130  46.6130  47.2181  47.2181  47.7442  47.7442
    47.7644  47.7644  48.4973  48.4973  49.2356  49.2356  49.2679  49.2679
    49.9155  49.9155  50.1457  50.1457  50.7610  50.7610  51.3753  51.3753
    51.5399  51.5399  51.6090  51.6090  51.7522  51.7522  52.6558  52.6558
    52.7095  52.7095  52.8357  52.8357  53.0493  53.0493  53.2934  53.2934
    53.6115  53.6115  54.0149  54.0149  54.4341  54.4341  54.8560  54.8560
    54.9751  54.9751  55.3040  55.3040  55.5491  55.5491  55.8426  55.8428
    56.4047  56.4047  56.8441  56.8441  56.8845  56.8845

          k =-0.4658 0.2862 0.0000 (  4776 PWs)   bands (ev):

   -86.8753 -86.8753 -86.7792 -86.7792 -86.7645 -86.7645 -86.6964 -86.6964
   -86.6145 -86.6145 -86.5181 -86.5181 -77.2960 -77.2960 -77.2438 -77.2438
   -44.3469 -44.3469 -44.3369 -44.3369 -44.1681 -44.1681 -44.1628 -44.1628
   -44.1407 -44.1407 -43.9557 -43.9557 -43.5769 -43.5769 -43.5274 -43.5274
   -43.5214 -43.5214 -43.4588 -43.4588 -43.3457 -43.3457 -43.3170 -43.3170
   -43.2842 -43.2842 -43.2737 -43.2737 -43.2670 -43.2670 -43.2171 -43.2171
   -43.0779 -43.0779 -43.0447 -43.0447 -37.4565 -37.4565 -37.4550 -37.4550
   -37.3754 -37.3754 -37.2955 -37.2955 -37.2857 -37.2857 -37.1975 -37.1975
    11.7380  11.7380  12.1164  12.1164  12.2369  12.2369  12.5041  12.5041
    13.6957  13.6957  13.8475  13.8475  14.1780  14.1780  14.3927  14.3927
    14.9337  14.9337  15.1068  15.1068  15.1097  15.1097  15.4251  15.4251
    15.4679  15.4679  15.7702  15.7702  15.8303  15.8303  16.0727  16.0727
    16.0752  16.0752  16.1357  16.1357  16.2164  16.2164  16.2850  16.2850
    16.4407  16.4407  16.5564  16.5564  16.6859  16.6859  16.9717  16.9717
    16.9904  16.9904  17.0785  17.0785  17.3555  17.3555  17.3741  17.3741
    17.5423  17.5423  17.5707  17.5707  19.4019  19.4019  19.8148  19.8148
    20.0566  20.0566  20.6462  20.6462  20.8312  20.8312  21.1845  21.1845
    21.9060  21.9060  22.0966  22.0966  22.3401  22.3401  22.6772  22.6772
    25.8684  25.8684  28.3987  28.3987  28.6537  28.6537  30.5139  30.5139
    31.0688  31.0688  34.2386  34.2386  37.1326  37.1326  38.2713  38.2713
    39.0675  39.0675  39.6954  39.6954  40.9235  40.9235  42.0193  42.0193
    42.2028  42.2028  43.1388  43.1388  43.7130  43.7130  44.2486  44.2486
    44.8207  44.8207  45.7671  45.7671  47.1707  47.1707  47.3866  47.3866
    48.1362  48.1362  48.6646  48.6646  48.9797  48.9797  49.5078  49.5078
    50.0845  50.0845  50.3384  50.3384  50.6314  50.6314  50.9019  50.9019
    51.2113  51.2113  52.1897  52.1897  52.4214  52.4214  52.6961  52.6961
    52.8693  52.8693  53.2894  53.2894  53.5396  53.5396  53.6439  53.6439
    53.9833  53.9833  54.2178  54.2179  54.4653  54.4653  54.7911  54.7912
    55.2955  55.2956  55.5016  55.5017  55.8651  55.8652  56.2962  56.2962
    56.5385  56.5387  57.1928  57.1930  57.4717  57.4720

          k =-0.4658 0.2862 0.1539 (  4784 PWs)   bands (ev):

   -86.8777 -86.8777 -86.8111 -86.8111 -86.7628 -86.7628 -86.7052 -86.7052
   -86.6074 -86.6074 -86.5528 -86.5528 -77.2927 -77.2927 -77.2667 -77.2667
   -44.3448 -44.3448 -44.3401 -44.3401 -44.1694 -44.1694 -44.1641 -44.1641
   -44.1142 -44.1142 -43.9883 -43.9883 -43.5720 -43.5720 -43.5442 -43.5442
   -43.5056 -43.5056 -43.4677 -43.4677 -43.3380 -43.3380 -43.3092 -43.3092
   -43.3022 -43.3022 -43.2792 -43.2792 -43.2562 -43.2562 -43.2246 -43.2246
   -43.0755 -43.0755 -43.0469 -43.0469 -37.4567 -37.4567 -37.4540 -37.4540
   -37.3544 -37.3544 -37.2978 -37.2978 -37.2834 -37.2834 -37.2224 -37.2224
    11.8268  11.8268  12.0861  12.0861  12.2776  12.2776  12.4864  12.4864
    13.7291  13.7291  13.8999  13.8999  14.1073  14.1073  14.3732  14.3732
    14.8782  14.8782  14.9686  14.9686  15.0357  15.0357  15.1842  15.1842
    15.4796  15.4796  15.6386  15.6386  15.9143  15.9143  16.0469  16.0469
    16.1373  16.1373  16.1898  16.1898  16.2675  16.2675  16.3871  16.3871
    16.4874  16.4874  16.5917  16.5917  16.7537  16.7537  16.9301  16.9301
    16.9993  16.9993  17.1245  17.1245  17.2764  17.2764  17.4142  17.4142
    17.5178  17.5178  17.5953  17.5953  19.5825  19.5825  19.9763  19.9763
    20.0942  20.0942  20.7482  20.7482  20.7784  20.7784  21.1290  21.1290
    21.9543  21.9543  22.0402  22.0402  22.1887  22.1887  22.4927  22.4927
    26.0519  26.0519  27.5499  27.5499  28.9298  28.9298  30.4073  30.4073
    31.8446  31.8446  35.0504  35.0504  36.6610  36.6610  37.4400  37.4400
    38.2987  38.2987  39.3637  39.3637  41.1404  41.1404  41.9660  41.9660
    42.5371  42.5371  43.8501  43.8501  44.2479  44.2479  44.7064  44.7064
    45.1420  45.1420  45.7308  45.7308  46.7280  46.7280  47.5293  47.5293
    48.1442  48.1442  48.4378  48.4378  48.7603  48.7603  49.2490  49.2490
    49.6649  49.6649  50.2449  50.2449  50.6502  50.6502  50.8710  50.8710
    51.5841  51.5841  51.9556  51.9556  52.3052  52.3052  52.6753  52.6753
    52.8635  52.8635  53.2441  53.2441  53.5745  53.5745  53.7895  53.7895
    54.0295  54.0295  54.1591  54.1591  54.5772  54.5772  54.7280  54.7280
    55.2830  55.2830  55.4984  55.4984  56.0143  56.0143  56.3453  56.3453
    56.7893  56.7893  57.0371  57.0371  57.3845  57.3845

          k =-0.4658 0.2862-0.3079 (  4752 PWs)   bands (ev):

   -86.8238 -86.8238 -86.7752 -86.7752 -86.7201 -86.7201 -86.6254 -86.6254
   -86.5585 -86.5585 -86.5090 -86.5090 -77.2401 -77.2401 -77.2376 -77.2376
   -44.3403 -44.3403 -44.3398 -44.3398 -44.1641 -44.1641 -44.1638 -44.1638
   -44.0476 -44.0476 -44.0451 -44.0451 -43.5607 -43.5607 -43.5503 -43.5503
   -43.4850 -43.4850 -43.4754 -43.4754 -43.3214 -43.3214 -43.3162 -43.3162
   -43.2912 -43.2912 -43.2878 -43.2878 -43.2365 -43.2365 -43.2318 -43.2318
   -43.0731 -43.0731 -43.0436 -43.0436 -37.4516 -37.4516 -37.4514 -37.4514
   -37.3119 -37.3119 -37.3099 -37.3099 -37.2661 -37.2661 -37.2625 -37.2625
    11.9859  11.9859  11.9942  11.9942  12.3867  12.3867  12.4043  12.4043
    13.8429  13.8429  13.8709  13.8709  14.1297  14.1297  14.2452  14.2452
    14.7497  14.7497  14.7930  14.7930  15.0551  15.0551  15.1179  15.1179
    15.5517  15.5517  15.5554  15.5554  15.9443  15.9443  16.0768  16.0768
    16.1120  16.1120  16.2250  16.2250  16.3447  16.3447  16.4142  16.4142
    16.4854  16.4854  16.6401  16.6401  16.8631  16.8631  16.9333  16.9333
    17.0432  17.0432  17.0956  17.0956  17.2642  17.2642  17.3570  17.3570
    17.5754  17.5754  17.6030  17.6030  19.8877  19.8877  19.9455  19.9455
    20.4391  20.4391  20.4411  20.4411  20.9921  20.9921  21.0793  21.0793
    21.9006  21.9006  22.0073  22.0073  22.1656  22.1656  22.1972  22.1972
    26.6115  26.6115  26.6256  26.6256  29.5399  29.5399  29.5569  29.5569
    33.9848  33.9848  34.1787  34.1787  36.6449  36.6449  36.9577  36.9577
    38.2005  38.2005  38.3020  38.3020  41.5012  41.5012  41.6436  41.6436
    43.2761  43.2761  43.6062  43.6062  45.1079  45.1079  45.1301  45.1301
    45.9040  45.9040  45.9342  45.9342  46.6552  46.6552  46.8153  46.8153
    48.1569  48.1569  48.3371  48.3371  48.7106  48.7106  48.9936  48.9936
    49.3940  49.3940  49.5697  49.5697  50.8084  50.8084  50.8115  50.8115
    51.8130  51.8130  52.2460  52.2460  52.2665  52.2665  52.4678  52.4678
    52.9964  52.9964  53.0913  53.0913  53.6455  53.6455  53.7268  53.7268
    53.9838  53.9838  54.1245  54.1245  54.3642  54.3642  55.2067  55.2067
    55.3310  55.3310  55.3322  55.3322  56.4125  56.4125  56.5416  56.5416
    56.9282  56.9282  56.9283  56.9284  57.3684  57.6426

     the Fermi energy is    50.8168 ev

!    total energy              =   -7038.52540429 Ry
     Harris-Foulkes estimate   =   -7038.52545215 Ry
     estimated scf accuracy    <       0.00005735 Ry

     The total energy is the sum of the following terms:

     one-electron contribution =   -1550.14375112 Ry
     hartree contribution      =    1158.20983629 Ry
     xc contribution           =    -558.65917123 Ry
     ewald contribution        =   -6087.25894860 Ry
     smearing contrib. (-TS)   =      -0.67336964 Ry

     convergence has been achieved in   8 iterations

     Forces acting on atoms (Ry/au):

     atom    1 type  1   force =     0.68652158   -0.71002515   -0.91468213
     atom    2 type  1   force =    -0.68652158   -0.71002515    0.91468213
     atom    3 type  1   force =     0.68652158    0.71002515   -0.91468213
     atom    4 type  1   force =    -1.17873719   -0.48983977    0.00000000
     atom    5 type  1   force =    -0.68652158   -0.71002515   -0.91468213
     atom    6 type  1   force =     0.68652158   -0.71002515    0.91468213
     atom    7 type  1   force =     1.17873719   -0.48983977    0.00000000
     atom    8 type  1   force =    -0.68652158    0.71002515   -0.91468213
     atom    9 type  1   force =     0.68652158    0.71002515    0.91468213
     atom   10 type  1   force =     1.17873719    0.48983977    0.00000000
     atom   11 type  1   force =    -0.68652158    0.71002515    0.91468213
     atom   12 type  1   force =    -1.17873719    0.48983977    0.00000000
     atom   13 type  2   force =     0.00000000    0.00000000    0.00000000
     atom   14 type  2   force =     0.00000000    0.00000000    0.00000000
     atom   15 type  2   force =     0.00000000    0.00000000    0.00000000
     atom   16 type  2   force =     0.00000000    0.00000000    0.00000000

     Total force =     4.584123     Total SCF correction =     0.000000


     entering subroutine stress ...

          total   stress  (Ry/bohr**3)                   (kbar)     P= 5169.02
   0.03431231   0.00000000   0.00000000       5047.51      0.00      0.00
   0.00000000   0.03488534   0.00000000          0.00   5131.81      0.00
   0.00000000   0.00000000   0.03621729          0.00      0.00   5327.75


     number of scf cycles    =   2
     number of bfgs steps    =   1

     enthalpy old            =   -7021.8033790547 Ry
     enthalpy new            =   -7038.5254042949 Ry

     CASE: enthalpy_new < enthalpy_old

     small trust_radius: resetting bfgs history

     new trust radius        =       6.7368278846 bohr
     new conv_thr            =       0.0001000000 Ry

     new unit-cell volume =   9172.12635 a.u.^3 (  1359.16888 Ang^3 )

CELL_PARAMETERS (alat=  8.80076499)
   1.994078331   0.000000000   0.000000000
   0.000000000   2.180738724   0.000000000
   0.000000000   0.000000000   3.094303492

ATOMIC_POSITIONS (crystal)
Fe       0.424572255   0.094823405   0.854205133
Fe       0.075427745   0.594823405   0.645794867
Fe       0.924572255   0.405176595   0.354205133
Fe       0.206838134   0.399508812   0.250000000
Fe       0.075427745   0.594823405   0.854205133
Fe       0.424572255   0.094823405   0.645794867
Fe       0.293161866   0.899508812   0.250000000
Fe       0.575427745   0.905176595   0.354205133
Fe       0.924572255   0.405176595   0.145794867
Fe       0.793161866   0.600491188   0.750000000
Fe       0.575427745   0.905176595   0.145794867
Fe       0.706838134   0.100491188   0.750000000
C        0.000000000   0.000000000   0.000000000
C        0.500000000   0.500000000   0.000000000
C        0.500000000   0.500000000   0.500000000
C        0.000000000   0.000000000   0.500000000



     Writing output data file Prototype-La-oP16-Fe3C.save
     NEW-OLD atomic charge density approx. for the potential
     NEW k-points:
        k(    1) = (   0.0000000   0.0000000   0.0000000), wk =   0.0833333
        k(    2) = (   0.0000000   0.0000000   0.0807936), wk =   0.1666667
        k(    3) = (   0.0000000   0.0000000  -0.1615873), wk =   0.0833333
        k(    4) = (   0.0000000   0.1528534   0.0000000), wk =   0.1666667
        k(    5) = (   0.0000000   0.1528534   0.0807936), wk =   0.3333333
        k(    6) = (   0.0000000   0.1528534  -0.1615873), wk =   0.1666667
        k(    7) = (  -0.2507424   0.0000000   0.0000000), wk =   0.0833333
        k(    8) = (  -0.2507424   0.0000000   0.0807936), wk =   0.1666667
        k(    9) = (  -0.2507424   0.0000000  -0.1615873), wk =   0.0833333
        k(   10) = (  -0.2507424   0.1528534   0.0000000), wk =   0.1666667
        k(   11) = (  -0.2507424   0.1528534   0.0807936), wk =   0.3333333
        k(   12) = (  -0.2507424   0.1528534  -0.1615873), wk =   0.1666667

[...]
   -49.2936 -49.2936 -49.2842 -49.2842 -49.1742 -49.1742 -49.1728 -49.1728
   -49.1256 -49.1256 -49.1231 -49.1231 -49.1105 -49.1105 -49.1075 -49.1075
   -48.9624 -48.9624 -48.9606 -48.9606 -42.6347 -42.6347 -42.6127 -42.6127
   -42.5932 -42.5932 -42.5809 -42.5809 -42.5111 -42.5111 -42.5093 -42.5093
     7.7260   7.7260   7.8989   7.8989   8.0809   8.0809   8.1798   8.1798
     9.3136   9.3136   9.3675   9.3675   9.4213   9.4213   9.4634   9.4634
     9.5922   9.5922   9.6204   9.6204   9.7793   9.7793   9.9075   9.9075
    10.2677  10.2677  10.2936  10.2936  10.4696  10.4696  10.5494  10.5494
    10.6462  10.6462  10.7261  10.7261  10.7963  10.7963  10.9050  10.9050
    10.9710  10.9710  11.0136  11.0136  11.0983  11.0983  11.2087  11.2087
    11.3560  11.3560  11.4224  11.4224  11.4776  11.4776  11.4889  11.4889
    11.6260  11.6260  11.6734  11.6734  14.6566  14.6566  14.7137  14.7137
    14.9242  14.9242  14.9737  14.9737  15.1091  15.1091  15.2873  15.2873
    15.4448  15.4448  15.5679  15.5679  15.7130  15.7130  15.9461  15.9461
    19.6810  19.6810  21.5861  21.5861  26.4834  26.4834  26.7705  26.7705
    27.1272  27.1272  28.0935  28.0935  28.9817  28.9817  29.5304  29.5304
    31.5429  31.5429  33.7773  33.7773  34.0328  34.0328  34.9541  34.9541
    35.3062  35.3062  36.2509  36.2509  37.1272  37.1272  38.4458  38.4458
    38.7366  38.7366  39.8036  39.8036  39.9674  39.9674  41.2134  41.2134
    41.6109  41.6109  41.9924  41.9924  42.4239  42.4239  42.9696  42.9696
    43.1753  43.1753  43.3359  43.3359  44.1249  44.1249  44.5002  44.5002
    45.6651  45.6651  45.6698  45.6698  45.8132  45.8132  46.1333  46.1333
    46.3441  46.3441  46.4531  46.4531  46.9006  46.9007  47.0444  47.0444
    47.1624  47.1624  47.9321  47.9321  48.3504  48.3505  48.6936  48.6936
    48.9228  48.9228  49.0266  49.0266  49.3363  49.3364  49.3848  49.3848
    50.1663  50.1663  50.4252  50.4253  50.7464  50.7466

          k =-0.4459 0.0000 0.0000 (  6816 PWs)   bands (ev):

   -93.8234 -93.8234 -93.7846 -93.7846 -93.7841 -93.7840 -93.7367 -93.7367
   -93.6509 -93.6509 -93.5820 -93.5820 -83.4884 -83.4883 -83.4574 -83.4573
   -49.8046 -49.8046 -49.7979 -49.7979 -49.7920 -49.7920 -49.7881 -49.7880
   -49.6520 -49.6519 -49.5917 -49.5917 -49.3480 -49.3480 -49.3381 -49.3381
   -49.2995 -49.2995 -49.2921 -49.2921 -49.1972 -49.1972 -49.1558 -49.1558
   -49.1452 -49.1452 -49.1447 -49.1447 -49.1240 -49.1240 -49.1024 -49.1024
   -48.9729 -48.9729 -48.9655 -48.9655 -42.6270 -42.6270 -42.6176 -42.6176
   -42.6050 -42.6047 -42.6012 -42.6009 -42.5379 -42.5379 -42.4884 -42.4884
     7.8087   7.8087   7.9078   7.9078   7.9270   7.9270   8.3058   8.3058
     9.1925   9.1925   9.2272   9.2272   9.2360   9.2360   9.4441   9.4441
     9.6014   9.6014   9.6196   9.6196   9.9431   9.9431  10.1349  10.1349
    10.2050  10.2050  10.3056  10.3056  10.4466  10.4466  10.5288  10.5288
    10.6225  10.6225  10.7293  10.7293  10.7663  10.7663  10.8736  10.8736
    10.9620  10.9621  10.9892  10.9892  11.0552  11.0552  11.3559  11.3559
    11.3675  11.3675  11.3999  11.3999  11.4856  11.4857  11.5488  11.5488
    11.6253  11.6253  11.6851  11.6851  14.6172  14.6172  14.6619  14.6619
    14.8334  14.8334  15.0524  15.0524  15.0783  15.0784  15.3355  15.3355
    15.4290  15.4290  15.5548  15.5548  15.8790  15.8790  15.9995  15.9995
    20.0146  20.0146  22.1497  22.1497  24.5081  24.5081  26.3566  26.3566
    26.6462  26.6462  28.4365  28.4365  28.6016  28.6016  30.8913  30.8913
    31.9712  31.9712  32.0612  32.0612  33.9744  33.9745  35.4014  35.4014
    36.1407  36.1407  37.1773  37.1773  38.1641  38.1641  38.3734  38.3734
    39.5197  39.5198  40.4647  40.4647  40.6258  40.6258  40.8327  40.8327
    41.6575  41.6575  42.0867  42.0867  42.2886  42.2886  42.6756  42.6756
    43.8882  43.8883  44.0441  44.0441  44.1544  44.1544  44.5569  44.5569
    44.6509  44.6509  45.1391  45.1391  45.3320  45.3320  45.6129  45.6129
    46.1941  46.1941  46.5481  46.5481  46.6360  46.6360  46.7688  46.7689
    47.2824  47.2824  47.4143  47.4143  47.7403  47.7404  48.0159  48.0159
    48.3786  48.3786  48.4293  48.4293  48.4510  48.4510  49.4810  49.4811
    49.8573  49.8575  50.0191  50.0193  50.3745  50.3746

          k =-0.4459 0.0000 0.1467 (  6810 PWs)   bands (ev):

   -93.8018 -93.8018 -93.7999 -93.7999 -93.7812 -93.7812 -93.7338 -93.7338
   -93.6273 -93.6273 -93.5917 -93.5917 -83.4870 -83.4870 -83.4520 -83.4519
   -49.8014 -49.8013 -49.7971 -49.7971 -49.7907 -49.7907 -49.7856 -49.7856
   -49.6491 -49.6490 -49.5994 -49.5994 -49.3470 -49.3469 -49.3348 -49.3348
   -49.2994 -49.2994 -49.2920 -49.2920 -49.1959 -49.1958 -49.1645 -49.1645
   -49.1437 -49.1437 -49.1362 -49.1362 -49.1230 -49.1230 -49.1055 -49.1055
   -48.9693 -48.9692 -48.9636 -48.9636 -42.6261 -42.6261 -42.6178 -42.6178
   -42.6046 -42.6043 -42.5981 -42.5978 -42.5317 -42.5317 -42.4954 -42.4954
     7.8242   7.8242   7.8939   7.8939   8.0073   8.0073   8.2890   8.2890
     9.1990   9.1990   9.2432   9.2432   9.2767   9.2767   9.4332   9.4332
     9.5749   9.5749   9.6361   9.6361   9.7932   9.7932   9.8211   9.8211
    10.2933  10.2933  10.3541  10.3541  10.4567  10.4567  10.5603  10.5603
    10.7036  10.7036  10.7495  10.7495  10.7965  10.7965  10.8286  10.8286
    10.9522  10.9522  11.0364  11.0364  11.1170  11.1170  11.3180  11.3180
    11.3599  11.3599  11.4060  11.4060  11.4811  11.4811  11.5661  11.5661
    11.6282  11.6282  11.6573  11.6573  14.7691  14.7691  14.8315  14.8315
    14.9200  14.9200  15.0621  15.0621  15.0722  15.0722  15.2966  15.2966
    15.3979  15.3979  15.5401  15.5401  15.7375  15.7375  15.8526  15.8526
    20.1840  20.1840  21.5198  21.5198  25.5148  25.5148  26.4889  26.4889
    26.7537  26.7538  28.0492  28.0493  28.2311  28.2311  30.1403  30.1403
    31.7632  31.7632  32.6366  32.6366  35.0304  35.0304  35.4516  35.4516
    35.6117  35.6117  36.8511  36.8511  37.7245  37.7246  38.7399  38.7399
    39.7793  39.7794  40.4087  40.4088  41.0476  41.0476  41.0951  41.0951
    41.5402  41.5402  42.0141  42.0141  42.2352  42.2352  42.8594  42.8594
    42.9577  42.9577  43.6522  43.6522  44.3462  44.3462  44.5286  44.5286
    45.0000  45.0000  45.2066  45.2066  45.3306  45.3306  45.8638  45.8638
    46.1638  46.1638  46.4739  46.4739  46.5866  46.5866  46.8995  46.8995
    47.1754  47.1754  47.7090  47.7090  47.7537  47.7537  48.0337  48.0337
    48.0934  48.0934  48.3641  48.3641  49.1309  49.1310  49.2344  49.2344
    49.4479  49.4480  49.8135  49.8136  50.2578  50.2578

          k =-0.4459 0.0000-0.2933 (  6736 PWs)   bands (ev):

   -93.7502 -93.7502 -93.7298 -93.7298 -93.7289 -93.7289 -93.6686 -93.6686
   -93.5938 -93.5938 -93.5205 -93.5205 -83.4278 -83.4278 -83.4272 -83.4272
   -49.7896 -49.7896 -49.7873 -49.7873 -49.7834 -49.7834 -49.7790 -49.7790
   -49.6183 -49.6183 -49.6073 -49.6073 -49.3301 -49.3301 -49.3273 -49.3273
   -49.2898 -49.2898 -49.2838 -49.2838 -49.1740 -49.1740 -49.1675 -49.1675
   -49.1356 -49.1356 -49.1270 -49.1270 -49.1047 -49.1047 -49.0968 -49.0968
   -48.9608 -48.9608 -48.9570 -48.9570 -42.6181 -42.6181 -42.6125 -42.6125
   -42.5967 -42.5967 -42.5951 -42.5951 -42.5073 -42.5073 -42.5031 -42.5031
     7.8505   7.8505   7.8710   7.8710   8.1633   8.1633   8.2024   8.2024
     9.2060   9.2060   9.2739   9.2739   9.3816   9.3816   9.4331   9.4331
     9.5268   9.5268   9.5335   9.5335   9.6527   9.6527   9.7025   9.7025
    10.3174  10.3174  10.3365  10.3365  10.4959  10.4959  10.6517  10.6517
    10.6588  10.6588  10.7460  10.7460  10.8248  10.8248  10.8960  10.8960
    10.9249  10.9249  11.0561  11.0561  11.2147  11.2147  11.2603  11.2603
    11.3676  11.3676  11.4149  11.4149  11.4540  11.4540  11.5554  11.5554
    11.6399  11.6399  11.6532  11.6532  15.0121  15.0121  15.0330  15.0330
    15.0458  15.0458  15.0996  15.0996  15.1420  15.1420  15.1519  15.1519
    15.3281  15.3281  15.5286  15.5286  15.5718  15.5718  15.6136  15.6136
    20.6929  20.6929  20.7096  20.7096  26.7082  26.7082  26.7647  26.7647
    27.2520  27.2520  27.3251  27.3251  28.0960  28.0960  28.3864  28.3864
    32.8618  32.8618  33.3720  33.3720  34.0314  34.0314  35.4282  35.4282
    35.7006  35.7006  36.2977  36.2977  38.9969  38.9969  39.2446  39.2446
    39.7117  39.7117  39.8608  39.8608  40.7199  40.7199  40.9198  40.9198
    41.4162  41.4162  41.9757  41.9757  42.4441  42.4441  42.6935  42.6935
    43.3684  43.3684  43.6213  43.6213  44.2860  44.2860  44.5999  44.5999
    44.8344  44.8344  45.2231  45.2231  45.3523  45.3523  45.9613  45.9613
    46.1768  46.1768  46.4250  46.4250  46.6254  46.6254  46.8062  46.8063
    47.3397  47.3397  47.7586  47.7586  47.8158  47.8158  48.1371  48.1371
    48.4110  48.4111  48.7261  48.7261  48.8058  48.8058  49.0211  49.0212
    49.6039  49.6039  49.6158  49.6159  49.9327  49.9329

          k =-0.4459 0.2735 0.0000 (  6798 PWs)   bands (ev):

   -93.7999 -93.7999 -93.7814 -93.7814 -93.7481 -93.7481 -93.7427 -93.7427
   -93.6263 -93.6263 -93.5816 -93.5816 -83.4784 -83.4784 -83.4474 -83.4473
   -49.8254 -49.8253 -49.8233 -49.8233 -49.7689 -49.7689 -49.7529 -49.7529
   -49.6519 -49.6519 -49.5867 -49.5866 -49.3504 -49.3504 -49.3341 -49.3341
   -49.3047 -49.3047 -49.2797 -49.2797 -49.1970 -49.1969 -49.1525 -49.1524
   -49.1427 -49.1427 -49.1408 -49.1408 -49.1256 -49.1255 -49.0984 -49.0984
   -48.9725 -48.9723 -48.9621 -48.9619 -42.6418 -42.6417 -42.6408 -42.6407
   -42.5850 -42.5848 -42.5783 -42.5781 -42.5318 -42.5318 -42.4884 -42.4884
     7.6883   7.6883   7.9165   7.9165   7.9906   7.9906   8.2130   8.2131
     9.0583   9.0583   9.0755   9.0755   9.4702   9.4702   9.6750   9.6750
     9.7254   9.7254   9.8897   9.8897   9.9154   9.9154  10.0432  10.0432
    10.1358  10.1358  10.3909  10.3909  10.4466  10.4466  10.6203  10.6203
    10.6386  10.6386  10.6538  10.6538  10.7784  10.7784  10.8068  10.8068
    10.9103  10.9103  10.9259  10.9259  11.0726  11.0726  11.2471  11.2471
    11.2836  11.2836  11.3455  11.3456  11.5531  11.5531  11.5540  11.5540
    11.6585  11.6585  11.6774  11.6774  14.1790  14.1791  14.4006  14.4006
    14.6768  14.6769  14.9623  14.9624  15.0745  15.0745  15.3585  15.3585
    15.7211  15.7211  15.8288  15.8288  16.0634  16.0634  16.2878  16.2878
    20.6428  20.6428  22.7729  22.7729  23.2206  23.2206  24.9571  24.9572
    25.2482  25.2482  28.2240  28.2240  31.2100  31.2100  31.9252  31.9252
    32.5458  32.5459  33.5745  33.5745  34.4963  34.4963  35.5230  35.5230
    35.8443  35.8443  36.5094  36.5094  36.7699  36.7699  37.4209  37.4209
    38.4960  38.4960  39.3020  39.3020  40.2974  40.2975  40.9142  40.9142
    41.6470  41.6470  41.8849  41.8849  42.2400  42.2400  43.1717  43.1717
    44.0272  44.0272  44.0762  44.0762  44.3803  44.3803  44.4785  44.4786
    45.1333  45.1333  45.4327  45.4328  46.0268  46.0268  46.1186  46.1186
    46.4482  46.4482  46.7355  46.7355  46.8115  46.8116  47.0486  47.0486
    47.2363  47.2364  47.3556  47.3556  47.6941  47.6942  47.7077  47.7077
    48.3703  48.3705  48.6114  48.6115  49.1167  49.1168  49.1448  49.1449
    49.4112  49.4113  50.1300  50.1302  50.3105  50.3110

          k =-0.4459 0.2735 0.1467 (  6792 PWs)   bands (ev):

   -93.7780 -93.7780 -93.7766 -93.7766 -93.7617 -93.7617 -93.7346 -93.7346
   -93.6219 -93.6219 -93.5800 -93.5800 -83.4678 -83.4677 -83.4512 -83.4511
   -49.8278 -49.8277 -49.8204 -49.8203 -49.7662 -49.7661 -49.7556 -49.7555
   -49.6418 -49.6418 -49.5941 -49.5941 -49.3469 -49.3468 -49.3358 -49.3358
   -49.2968 -49.2968 -49.2840 -49.2840 -49.1901 -49.1901 -49.1652 -49.1652
   -49.1425 -49.1425 -49.1347 -49.1347 -49.1206 -49.1205 -49.1022 -49.1022
   -48.9696 -48.9694 -48.9618 -48.9616 -42.6420 -42.6419 -42.6407 -42.6406
   -42.5852 -42.5850 -42.5778 -42.5776 -42.5260 -42.5259 -42.4913 -42.4913
     7.7393   7.7393   7.8955   7.8955   8.0262   8.0262   8.1955   8.1955
     9.0848   9.0848   9.1225   9.1225   9.4296   9.4296   9.6134   9.6134
     9.7294   9.7294   9.8319   9.8319   9.8793   9.8793   9.9873   9.9873
    10.1341  10.1341  10.2778  10.2778  10.4807  10.4807  10.6084  10.6084
    10.6538  10.6538  10.6969  10.6969  10.7699  10.7700  10.8541  10.8541
    10.8981  10.8981  10.9940  10.9940  11.1002  11.1002  11.2513  11.2513
    11.2898  11.2898  11.3553  11.3553  11.4955  11.4955  11.5820  11.5820
    11.6351  11.6351  11.6997  11.6997  14.3105  14.3105  14.5313  14.5313
    14.6640  14.6640  15.0169  15.0169  15.0565  15.0565  15.3319  15.3319
    15.7605  15.7605  15.8016  15.8016  15.9579  15.9580  16.1619  16.1619
    20.8074  20.8074  22.1054  22.1054  23.4634  23.4634  24.7282  24.7283
    26.0347  26.0347  28.8931  28.8931  30.3781  30.3781  31.4979  31.4979
    31.8715  31.8715  33.1986  33.1986  34.7762  34.7762  35.6892  35.6892
    36.2905  36.2905  36.9343  36.9343  37.3008  37.3009  37.8656  37.8656
    38.7568  38.7568  39.2301  39.2301  40.0773  40.0773  41.0412  41.0412
    41.3649  41.3649  41.7505  41.7505  42.0983  42.0983  42.7544  42.7544
    43.4313  43.4313  43.8657  43.8657  44.3053  44.3053  44.5509  44.5509
    45.1205  45.1205  45.5477  45.5477  45.9616  45.9616  46.2606  46.2606
    46.3840  46.3840  46.6284  46.6284  46.8895  46.8895  47.1188  47.1188
    47.4673  47.4673  47.5103  47.5103  47.6671  47.6672  47.9252  47.9252
    48.4216  48.4216  48.5733  48.5733  49.1071  49.1071  49.3670  49.3670
    49.7717  49.7718  49.8872  49.8873  50.3399  50.3401

          k =-0.4459 0.2735-0.2933 (  6788 PWs)   bands (ev):

   -93.7820 -93.7820 -93.7720 -93.7720 -93.7562 -93.7562 -93.7289 -93.7289
   -93.6080 -93.6080 -93.5876 -93.5876 -83.4585 -83.4585 -83.4569 -83.4569
   -49.8243 -49.8243 -49.8240 -49.8240 -49.7591 -49.7591 -49.7557 -49.7557
   -49.6230 -49.6230 -49.6192 -49.6192 -49.3442 -49.3442 -49.3344 -49.3344
   -49.2937 -49.2937 -49.2866 -49.2866 -49.1809 -49.1809 -49.1780 -49.1780
   -49.1348 -49.1348 -49.1334 -49.1334 -49.1141 -49.1141 -49.1094 -49.1094
   -48.9678 -48.9678 -48.9644 -48.9644 -42.6412 -42.6412 -42.6406 -42.6406
   -42.5785 -42.5785 -42.5780 -42.5780 -42.5104 -42.5104 -42.5102 -42.5102
     7.8271   7.8271   7.8370   7.8370   8.1131   8.1131   8.1279   8.1279
     9.1548   9.1548   9.1778   9.1778   9.3806   9.3806   9.4681   9.4681
     9.7100   9.7100   9.7674   9.7674   9.8809   9.8809   9.9613   9.9613
    10.1727  10.1727  10.1919  10.1919  10.4902  10.4902  10.6200  10.6200
    10.6470  10.6470  10.7129  10.7129  10.8146  10.8146  10.8505  10.8505
    10.8930  10.8930  10.9961  10.9961  11.1951  11.1951  11.2386  11.2386
    11.3216  11.3216  11.3315  11.3315  11.4735  11.4735  11.5351  11.5351
    11.6627  11.6627  11.7067  11.7067  14.5297  14.5297  14.5580  14.5580
    14.8059  14.8059  14.8203  14.8203  15.2198  15.2198  15.2825  15.2825
    15.7562  15.7562  15.8039  15.8039  15.9179  15.9179  15.9378  15.9378
    21.3013  21.3013  21.3015  21.3015  23.9954  23.9954  23.9965  23.9965
    27.8238  27.8238  28.1919  28.1919  30.1157  30.1157  30.8085  30.8085
    32.1768  32.1768  32.2321  32.2321  35.1957  35.1957  35.2992  35.2992
    36.7448  36.7448  37.1625  37.1625  38.2073  38.2073  38.3890  38.3890
    39.2162  39.2162  39.3552  39.3552  40.1245  40.1245  40.2149  40.2149
    41.4058  41.4058  41.4931  41.4931  41.9996  41.9996  42.1720  42.1720
    43.0885  43.0885  43.3680  43.3680  44.3296  44.3296  44.5451  44.5451
    45.1731  45.1731  45.8163  45.8163  45.9363  45.9363  46.1956  46.1956
    46.4869  46.4869  46.5615  46.5615  46.9886  46.9886  47.0864  47.0864
    47.4709  47.4709  47.5125  47.5125  47.7235  47.7235  48.4096  48.4096
    48.4635  48.4635  48.5488  48.5488  49.2578  49.2579  49.5316  49.5318
    49.7432  49.7435  50.0063  50.0064  50.2033  50.2037

     the Fermi energy is    44.4002 ev

!    total energy              =   -7055.26274037 Ry
     Harris-Foulkes estimate   =   -7055.26274942 Ry
     estimated scf accuracy    <       0.00001051 Ry

     The total energy is the sum of the following terms:

     one-electron contribution =   -1937.66232709 Ry
     hartree contribution      =    1263.90723999 Ry
     xc contribution           =    -553.02455490 Ry
     ewald contribution        =   -5827.81300352 Ry
     smearing contrib. (-TS)   =      -0.67009485 Ry

     convergence has been achieved in  11 iterations

     Forces acting on atoms (Ry/au):

     atom    1 type  1   force =     0.50297708   -0.50068911   -0.64223480
     atom    2 type  1   force =    -0.50297708   -0.50068911    0.64223480
     atom    3 type  1   force =     0.50297708    0.50068911   -0.64223480
     atom    4 type  1   force =    -0.82505220   -0.33512066    0.00000000
     atom    5 type  1   force =    -0.50297708   -0.50068911   -0.64223480
     atom    6 type  1   force =     0.50297708   -0.50068911    0.64223480
     atom    7 type  1   force =     0.82505220   -0.33512066    0.00000000
     atom    8 type  1   force =    -0.50297708    0.50068911   -0.64223480
     atom    9 type  1   force =     0.50297708    0.50068911    0.64223480
     atom   10 type  1   force =     0.82505220    0.33512066    0.00000000
     atom   11 type  1   force =    -0.50297708    0.50068911    0.64223480
     atom   12 type  1   force =    -0.82505220    0.33512066    0.00000000
     atom   13 type  2   force =     0.00000000    0.00000000    0.00000000
     atom   14 type  2   force =     0.00000000    0.00000000    0.00000000
     atom   15 type  2   force =     0.00000000    0.00000000    0.00000000
     atom   16 type  2   force =     0.00000000    0.00000000    0.00000000

     Total force =     3.240555     Total SCF correction =     0.000000


     entering subroutine stress ...

          total   stress  (Ry/bohr**3)                   (kbar)     P= 3711.91
   0.02464456   0.00000000   0.00000000       3625.34      0.00      0.00
   0.00000000   0.02504335   0.00000000          0.00   3684.00      0.00
   0.00000000   0.00000000   0.02601130          0.00      0.00   3826.39


     Writing output data file Prototype-La-oP16-Fe3C.save
 
     init_run     :     10.25s CPU     12.19s WALL (       2 calls)
     electrons    :   4366.64s CPU   4794.04s WALL (       5 calls)
     update_pot   :      2.43s CPU      2.45s WALL (       3 calls)
     forces       :     10.84s CPU     11.23s WALL (       5 calls)
     stress       :     40.63s CPU     41.19s WALL (       5 calls)

     Called by init_run:
     wfcinit      :      9.10s CPU     11.02s WALL (       2 calls)
     potinit      :      0.55s CPU      0.55s WALL (       2 calls)

     Called by electrons:
     c_bands      :   4322.15s CPU   4733.14s WALL (      51 calls)
     sum_band     :     44.03s CPU     59.05s WALL (      51 calls)
     v_of_rho     :      0.10s CPU      0.11s WALL (      56 calls)
     mix_rho      :      0.11s CPU      0.14s WALL (      51 calls)

     Called by c_bands:
     init_us_2    :      2.28s CPU      2.62s WALL (    1368 calls)
     ccgdiagg     :   4051.54s CPU   4407.60s WALL (     835 calls)
     wfcrot       :    276.63s CPU    330.62s WALL (     847 calls)

     Called by *cgdiagg:
     h_psi        :   2380.63s CPU   2772.55s WALL ( 1220210 calls)
     cdiaghg      :     32.07s CPU     38.11s WALL (     847 calls)

     Called by h_psi:
     add_vuspsi   :    670.69s CPU    694.63s WALL ( 1220210 calls)

     General routines
     calbec       :   1319.29s CPU   1421.68s WALL ( 2439693 calls)
     fft          :      0.17s CPU      0.19s WALL (     247 calls)
     fftw         :    936.78s CPU   1155.91s WALL ( 2987554 calls)
     davcio       :      2.31s CPU      5.75s WALL (    1980 calls)
 
     Parallel routines
     fft_scatter  :    363.77s CPU    468.14s WALL ( 2987801 calls)
 
     PWSCF        :     1h13m CPU        1h21m WALL

 
   This run was terminated on:  11:35:20  22Mar2018            

=------------------------------------------------------------------------------=
   JOB DONE.
=------------------------------------------------------------------------------=
