
     Program PWSCF v.5.0.2 starts on 22Mar2018 at 21:33:58 

     This program is part of the open-source Quantum ESPRESSO suite
     for quantum simulation of materials; please cite
         "P. Giannozzi et al., J. Phys.:Condens. Matter 21 395502 (2009);
          URL http://www.quantum-espresso.org", 
     in publications or presentations arising from this work. More details at
     http://www.quantum-espresso.org/quote.php

     Parallel version (MPI), running on     4 processors
     R & G space division:  proc/nbgrp/npool/nimage =       4

     Current dimensions of program PWSCF are:
     Max number of different atomic species (ntypx) = 10
     Max number of k-points (npk) =  40000
     Max angular momentum in pseudopotentials (lmaxx) =  3
     Waiting for input...
     Reading input from standard input

     Subspace diagonalization in iterative solution of the eigenvalue problem:
     a serial algorithm will be used

 
     Parallelization info
     --------------------
     sticks:   dense  smooth     PW     G-vecs:    dense   smooth      PW
     Min         233     233     69                 5311     5311     851
     Max         234     234     70                 5314     5314     854
     Sum         933     933    277                21247    21247    3407
 


     bravais-lattice index     =            0
     lattice parameter (alat)  =       8.5346  a.u.
     unit-cell volume          =     621.6493 (a.u.)^3
     number of atoms/cell      =            8
     number of atomic types    =            2
     number of electrons       =       174.00
     number of Kohn-Sham states=          104
     kinetic-energy cutoff     =      40.0000  Ry
     charge density cutoff     =     160.0000  Ry
     convergence threshold     =      1.0E-04
     mixing beta               =       0.7000
     number of iterations used =            8  plain     mixing
     Exchange-correlation      = SLA-PZ-NOGX-NOGC ( 1 1 0 0 0)
     EXX-fraction              =        0.00
     nstep                     =           50


     celldm(1)=   8.534573  celldm(2)=   0.000000  celldm(3)=   0.000000
     celldm(4)=   0.000000  celldm(5)=   0.000000  celldm(6)=   0.000000

     crystal axes: (cart. coord. in units of alat)
               a(1) = (   1.000000   0.000000   0.000000 )  
               a(2) = (   0.000000   1.000000   0.000000 )  
               a(3) = (   0.000000   0.000000   1.000000 )  

     reciprocal axes: (cart. coord. in units 2 pi/alat)
               b(1) = (  1.000000  0.000000  0.000000 )  
               b(2) = (  0.000000  1.000000  0.000000 )  
               b(3) = (  0.000000  0.000000  1.000000 )  


     PseudoPot. # 1 for Tm read from file:
     /home/cwx6513/pp.La/Tm.UPF
     MD5 check sum: 245516e0878b5372ceeb9443ded2c4e1
     Pseudo is Norm-conserving, Zval = 23.0
     Generated in analytical, separable form
     Using radial grid of 1269 points,  6 beta functions with: 
                l(1) =   0
                l(2) =   0
                l(3) =   1
                l(4) =   1
                l(5) =   2
                l(6) =   3

     PseudoPot. # 2 for Gd read from file:
     /home/cwx6513/pp.La/Gd.UPF
     MD5 check sum: 09a8be538722f05520810cb6aac0efd2
     Pseudo is Norm-conserving, Zval = 18.0
     Generated in analytical, separable form
     Using radial grid of 1263 points,  6 beta functions with: 
                l(1) =   0
                l(2) =   0
                l(3) =   1
                l(4) =   1
                l(5) =   2
                l(6) =   3

     atomic species   valence    mass     pseudopotential
        Cr            23.00    51.99610     Tm( 1.00)
        Si            18.00    28.08550     Gd( 1.00)

     48 Sym. Ops., with inversion, found (24 have fractional translation)



   Cartesian axes

     site n.     atom                  positions (alat units)
         1           Cr  tau(   1) = (   0.0000000   0.5000000   0.2500000  )
         2           Cr  tau(   2) = (   0.0000000   0.5000000   0.7500000  )
         3           Cr  tau(   3) = (   0.5000000   0.7500000   0.0000000  )
         4           Cr  tau(   4) = (   0.5000000   0.2500000   0.0000000  )
         5           Cr  tau(   5) = (   0.7500000   0.0000000   0.5000000  )
         6           Cr  tau(   6) = (   0.2500000   0.0000000   0.5000000  )
         7           Si  tau(   7) = (   0.5000000   0.5000000   0.5000000  )
         8           Si  tau(   8) = (   0.0000000   0.0000000   0.0000000  )

     number of k points=    48  gaussian smearing, width (Ry)=  0.1000
                       cart. coord. in units 2pi/alat
        k(    1) = (   0.0000000   0.0000000   0.0000000), wk =   0.0095238
        k(    2) = (   0.0000000   0.0000000   0.1428571), wk =   0.0190476
        k(    3) = (   0.0000000   0.0000000   0.2857143), wk =   0.0190476
        k(    4) = (   0.0000000   0.0000000   0.4285714), wk =   0.0190476
        k(    5) = (   0.0000000   0.1666667   0.0000000), wk =   0.0190476
        k(    6) = (   0.0000000   0.1666667   0.1428571), wk =   0.0380952
        k(    7) = (   0.0000000   0.1666667   0.2857143), wk =   0.0380952
        k(    8) = (   0.0000000   0.1666667   0.4285714), wk =   0.0380952
        k(    9) = (   0.0000000   0.3333333   0.0000000), wk =   0.0190476
        k(   10) = (   0.0000000   0.3333333   0.1428571), wk =   0.0380952
        k(   11) = (   0.0000000   0.3333333   0.2857143), wk =   0.0380952
        k(   12) = (   0.0000000   0.3333333   0.4285714), wk =   0.0380952
        k(   13) = (   0.0000000  -0.5000000   0.0000000), wk =   0.0095238
        k(   14) = (   0.0000000  -0.5000000   0.1428571), wk =   0.0190476
        k(   15) = (   0.0000000  -0.5000000   0.2857143), wk =   0.0190476
        k(   16) = (   0.0000000  -0.5000000   0.4285714), wk =   0.0190476
        k(   17) = (   0.2000000   0.0000000   0.0000000), wk =   0.0190476
        k(   18) = (   0.2000000   0.0000000   0.1428571), wk =   0.0380952
        k(   19) = (   0.2000000   0.0000000   0.2857143), wk =   0.0380952
        k(   20) = (   0.2000000   0.0000000   0.4285714), wk =   0.0380952
        k(   21) = (   0.2000000   0.1666667   0.0000000), wk =   0.0380952
        k(   22) = (   0.2000000   0.1666667   0.1428571), wk =   0.0761905
        k(   23) = (   0.2000000   0.1666667   0.2857143), wk =   0.0761905
        k(   24) = (   0.2000000   0.1666667   0.4285714), wk =   0.0761905
        k(   25) = (   0.2000000   0.3333333   0.0000000), wk =   0.0380952
        k(   26) = (   0.2000000   0.3333333   0.1428571), wk =   0.0761905
        k(   27) = (   0.2000000   0.3333333   0.2857143), wk =   0.0761905
        k(   28) = (   0.2000000   0.3333333   0.4285714), wk =   0.0761905
        k(   29) = (   0.2000000  -0.5000000   0.0000000), wk =   0.0190476
        k(   30) = (   0.2000000  -0.5000000   0.1428571), wk =   0.0380952
        k(   31) = (   0.2000000  -0.5000000   0.2857143), wk =   0.0380952
        k(   32) = (   0.2000000  -0.5000000   0.4285714), wk =   0.0380952
        k(   33) = (   0.4000000   0.0000000   0.0000000), wk =   0.0190476
        k(   34) = (   0.4000000   0.0000000   0.1428571), wk =   0.0380952
        k(   35) = (   0.4000000   0.0000000   0.2857143), wk =   0.0380952
        k(   36) = (   0.4000000   0.0000000   0.4285714), wk =   0.0380952
        k(   37) = (   0.4000000   0.1666667   0.0000000), wk =   0.0380952
        k(   38) = (   0.4000000   0.1666667   0.1428571), wk =   0.0761905
        k(   39) = (   0.4000000   0.1666667   0.2857143), wk =   0.0761905
        k(   40) = (   0.4000000   0.1666667   0.4285714), wk =   0.0761905
        k(   41) = (   0.4000000   0.3333333   0.0000000), wk =   0.0380952
        k(   42) = (   0.4000000   0.3333333   0.1428571), wk =   0.0761905
        k(   43) = (   0.4000000   0.3333333   0.2857143), wk =   0.0761905
        k(   44) = (   0.4000000   0.3333333   0.4285714), wk =   0.0761905
        k(   45) = (   0.4000000  -0.5000000   0.0000000), wk =   0.0190476
        k(   46) = (   0.4000000  -0.5000000   0.1428571), wk =   0.0380952
        k(   47) = (   0.4000000  -0.5000000   0.2857143), wk =   0.0380952
        k(   48) = (   0.4000000  -0.5000000   0.4285714), wk =   0.0380952

     Dense  grid:    21247 G-vectors     FFT dimensions: (  36,  36,  36)

     Largest allocated arrays     est. size (Mb)     dimensions
        Kohn-Sham Wavefunctions         1.08 Mb     (    683,  104)
        NL pseudopotentials             1.67 Mb     (    683,  160)
        Each V/rho on FFT grid          0.18 Mb     (  11664)
        Each G-vector array             0.04 Mb     (   5314)
        G-vector shells                 0.04 Mb     (   5314)
     Largest temporary arrays     est. size (Mb)     dimensions
        Each subspace H/S matrix        0.17 Mb     ( 104, 104)
        Each <psi_i|beta_j> matrix      0.25 Mb     (    160,  104)
        Arrays for rho mixing           1.42 Mb     (  11664,   8)

     Initial potential from superposition of free atoms

     Starting from uniform charge
     Starting wfc are    0 randomized atomic wfcs

     total cpu time spent up to now is        4.2 secs

     Self-consistent Calculation

     iteration #  1     ecut=    40.00 Ry     beta=0.70
     CG style diagonalization
     c_bands:  5 eigenvalues not converged
     c_bands:  3 eigenvalues not converged
     c_bands:  3 eigenvalues not converged
     c_bands:  2 eigenvalues not converged
     c_bands:  2 eigenvalues not converged
     c_bands:  1 eigenvalues not converged
     c_bands:  1 eigenvalues not converged
     c_bands:  1 eigenvalues not converged
     c_bands:  2 eigenvalues not converged
     c_bands:  4 eigenvalues not converged
     c_bands:  3 eigenvalues not converged
     c_bands:  4 eigenvalues not converged
     c_bands:  4 eigenvalues not converged
     c_bands:  1 eigenvalues not converged
     c_bands:  1 eigenvalues not converged
     c_bands:  3 eigenvalues not converged
     c_bands:  2 eigenvalues not converged
     c_bands:  3 eigenvalues not converged
     c_bands:  1 eigenvalues not converged
     c_bands:  2 eigenvalues not converged
     c_bands:  2 eigenvalues not converged
     c_bands:  2 eigenvalues not converged
     c_bands:  2 eigenvalues not converged
     c_bands:  5 eigenvalues not converged
     c_bands:  2 eigenvalues not converged
     c_bands:  3 eigenvalues not converged
     c_bands:  5 eigenvalues not converged
     c_bands:  1 eigenvalues not converged
     c_bands:  1 eigenvalues not converged
     c_bands:  4 eigenvalues not converged
     c_bands:  1 eigenvalues not converged
     c_bands:  2 eigenvalues not converged
     c_bands:  2 eigenvalues not converged
     c_bands:  1 eigenvalues not converged
     c_bands:  4 eigenvalues not converged
     c_bands:  3 eigenvalues not converged
     c_bands:  1 eigenvalues not converged
     ethr =  1.00E-02,  avg # of iterations = 13.6

     total cpu time spent up to now is       77.4 secs

     total energy              =   -2204.34748667 Ry
     Harris-Foulkes estimate   =   -3058.73816239 Ry
     estimated scf accuracy    <    1062.21786650 Ry

     iteration #  2     ecut=    40.00 Ry     beta=0.70
     CG style diagonalization
     c_bands:  1 eigenvalues not converged
     c_bands:  3 eigenvalues not converged
     c_bands:  1 eigenvalues not converged
     c_bands:  5 eigenvalues not converged
     c_bands:  1 eigenvalues not converged
     c_bands:  1 eigenvalues not converged
     c_bands:  2 eigenvalues not converged
     c_bands:  2 eigenvalues not converged
     c_bands:  2 eigenvalues not converged
     c_bands:  3 eigenvalues not converged
     c_bands:  3 eigenvalues not converged
     c_bands:  1 eigenvalues not converged
     c_bands:  3 eigenvalues not converged
     c_bands:  5 eigenvalues not converged
     c_bands:  1 eigenvalues not converged
     ethr =  1.00E-02,  avg # of iterations = 12.5

     total cpu time spent up to now is      330.3 secs

     total energy              =   -2328.78618774 Ry
     Harris-Foulkes estimate   =   -2794.58267896 Ry
     estimated scf accuracy    <     799.27683186 Ry

     iteration #  3     ecut=    40.00 Ry     beta=0.70
     CG style diagonalization
     c_bands:  1 eigenvalues not converged
     c_bands:  1 eigenvalues not converged
     c_bands:  1 eigenvalues not converged
     c_bands:  1 eigenvalues not converged
     ethr =  1.00E-02,  avg # of iterations =  8.9

     total cpu time spent up to now is      582.1 secs

     total energy              =   -2579.91011933 Ry
     Harris-Foulkes estimate   =   -2639.71737840 Ry
     estimated scf accuracy    <     127.03430837 Ry

     iteration #  4     ecut=    40.00 Ry     beta=0.70
     CG style diagonalization
     ethr =  1.00E-02,  avg # of iterations =  4.4

     total cpu time spent up to now is      707.2 secs

     total energy              =   -2595.45326599 Ry
     Harris-Foulkes estimate   =   -2597.07989861 Ry
     estimated scf accuracy    <       4.03894895 Ry

     iteration #  5     ecut=    40.00 Ry     beta=0.70
     CG style diagonalization
     ethr =  2.32E-03,  avg # of iterations =  3.7

     total cpu time spent up to now is      796.6 secs

     total energy              =   -2595.70872533 Ry
     Harris-Foulkes estimate   =   -2596.03013836 Ry
     estimated scf accuracy    <       0.51465611 Ry

     iteration #  6     ecut=    40.00 Ry     beta=0.70
     CG style diagonalization
     c_bands:  2 eigenvalues not converged
     c_bands:  1 eigenvalues not converged
     c_bands:  1 eigenvalues not converged
     c_bands:  1 eigenvalues not converged
     c_bands:  1 eigenvalues not converged
     c_bands:  1 eigenvalues not converged
     c_bands:  1 eigenvalues not converged
     c_bands:  1 eigenvalues not converged
     c_bands:  1 eigenvalues not converged
     c_bands:  1 eigenvalues not converged
     c_bands:  1 eigenvalues not converged
     c_bands:  1 eigenvalues not converged
     c_bands:  1 eigenvalues not converged
     c_bands:  1 eigenvalues not converged
     ethr =  2.96E-04,  avg # of iterations =  4.2

     total cpu time spent up to now is      920.4 secs

     total energy              =   -2595.88583727 Ry
     Harris-Foulkes estimate   =   -2595.92367927 Ry
     estimated scf accuracy    <       0.07997360 Ry

     iteration #  7     ecut=    40.00 Ry     beta=0.70
     CG style diagonalization
     c_bands:  1 eigenvalues not converged
     c_bands:  1 eigenvalues not converged
     c_bands:  1 eigenvalues not converged
     c_bands:  1 eigenvalues not converged
     c_bands:  1 eigenvalues not converged
     ethr =  4.60E-05,  avg # of iterations =  3.6

     total cpu time spent up to now is     1017.5 secs

     total energy              =   -2595.89877137 Ry
     Harris-Foulkes estimate   =   -2595.90076719 Ry
     estimated scf accuracy    <       0.00300194 Ry

     iteration #  8     ecut=    40.00 Ry     beta=0.70
     CG style diagonalization
     c_bands:  2 eigenvalues not converged
     c_bands:  1 eigenvalues not converged
     c_bands:  1 eigenvalues not converged
     c_bands:  1 eigenvalues not converged
     c_bands:  1 eigenvalues not converged
     ethr =  1.73E-06,  avg # of iterations =  4.4

     total cpu time spent up to now is     1146.9 secs

     total energy              =   -2595.90040057 Ry
     Harris-Foulkes estimate   =   -2595.90074448 Ry
     estimated scf accuracy    <       0.00080328 Ry

     iteration #  9     ecut=    40.00 Ry     beta=0.70
     CG style diagonalization
     ethr =  4.62E-07,  avg # of iterations =  3.3

     total cpu time spent up to now is     1229.9 secs

     End of self-consistent calculation

          k = 0.0000 0.0000 0.0000 (  2601 PWs)   bands (ev):

   -61.2789 -61.2789 -61.1530 -60.8815 -60.8815 -60.8815 -21.5908 -21.5578
   -21.5578 -20.6027 -20.4587 -20.1912 -20.1912 -20.1912 -19.8561 -19.8561
   -19.8561 -19.7718 -19.7718 -19.7718 -19.6930 -19.6930 -19.6930 -19.4199
   -19.4199 -19.4199   7.6506   7.6506   7.6506   7.6620   7.6620   7.6620
    23.1294  23.1294  23.1477  24.7845  24.7845  24.7845  26.5774  26.7640
    26.7640  26.7640  27.4234  27.4234  27.5048  27.5048  27.5048  27.6603
    29.0481  29.0481  29.0481  29.0850  30.0019  30.0019  30.1335  30.1335
    30.1335  30.1659  30.1659  30.1659  31.0095  31.0095  31.0095  35.5205
    35.5205  40.5654  40.5654  40.9024  40.9024  40.9024  40.9273  40.9273
    40.9273  41.3137  41.3137  41.3137  45.9444  48.2340  48.2340  48.4522
    48.4522  48.4522  51.5174  51.5174  51.5174  51.5586  51.5586  51.8831
    54.7945  54.7945  54.7945  54.9832  54.9832  54.9832  55.0875  55.3220
    55.3220  55.3220  56.4779  56.4779  56.4779  58.2185  60.3961  60.3965

          k = 0.0000 0.0000 0.1429 (  2657 PWs)   bands (ev):

   -61.2921 -61.2532 -61.1783 -61.0044 -60.9811 -60.9811 -21.6105 -21.5933
   -21.5204 -20.6434 -20.5114 -20.1909 -20.1909 -20.1292 -19.8821 -19.8821
   -19.8236 -19.8116 -19.8054 -19.8054 -19.7439 -19.7439 -19.7381 -19.5281
   -19.4359 -19.4359   7.6254   7.6350   7.6350   7.6542   7.6634   7.6634
    23.1323  23.1496  23.5051  24.7167  24.8711  24.8711  26.4919  26.6354
    26.7562  26.7562  27.4493  27.4750  27.4750  27.4953  27.5171  27.8100
    28.9804  29.0172  29.0172  29.3308  29.7682  29.8345  29.8468  29.8468
    30.1556  30.1556  30.2638  30.3384  30.6329  31.1429  31.1429  35.4503
    35.6806  40.0553  40.0553  40.1617  40.3338  40.8816  40.9594  40.9710
    41.0249  41.0249  42.3939  42.3939  46.3054  47.7796  47.8910  48.7363
    48.7363  48.9530  49.9004  51.6312  51.6312  51.8737  52.5938  52.9207
    53.2044  53.2044  54.5931  54.5931  54.7869  55.1045  55.2337  55.9297
    56.2771  56.2771  56.3982  56.8662  56.8662  58.0104  59.5223  60.7099

          k = 0.0000 0.0000 0.2857 (  2677 PWs)   bands (ev):

   -61.2932 -61.2442 -61.2301 -61.0398 -60.9988 -60.9988 -21.6116 -21.5929
   -21.2558 -20.7097 -20.5836 -20.1774 -20.1774 -20.0140 -19.9107 -19.9107
   -19.9070 -19.8026 -19.7959 -19.7959 -19.7926 -19.7670 -19.7670 -19.7548
   -19.4469 -19.4469   7.6097   7.6252   7.6393   7.6393   7.6699   7.6699
    23.1440  23.1614  24.5510  24.6700  25.0869  25.0869  25.9124  26.7553
    26.7553  26.8113  27.4408  27.4630  27.4630  27.5173  27.6382  28.1125
    28.8280  28.9504  28.9504  29.1895  29.1895  29.5075  29.5744  29.6156
    30.1154  30.1880  30.1880  30.4046  30.4825  31.3638  31.3638  34.7024
    36.1036  38.9189  39.2649  39.2649  39.9090  41.0800  41.0940  41.2523
    41.2523  41.6607  43.9586  43.9586  45.8986  46.2194  47.8116  48.8574
    49.4735  49.4735  50.6994  50.6994  50.7833  52.2659  52.7657  52.7657
    53.4755  53.4755  53.7253  53.9255  54.5344  55.4434  55.5660  55.9596
    56.4755  56.4755  57.1969  57.9632  58.2467  58.2467  58.8107  60.4173

          k = 0.0000 0.0000 0.4286 (  2658 PWs)   bands (ev):

   -61.2570 -61.2376 -61.1499 -61.0845 -60.9844 -60.9844 -21.6039 -21.5977
   -20.9156 -20.7561 -20.5632 -20.2719 -20.1680 -20.1680 -19.9096 -19.9096
   -19.8855 -19.8297 -19.7853 -19.7853 -19.7836 -19.7647 -19.7532 -19.7532
   -19.4416 -19.4416   7.6056   7.6174   7.6444   7.6444   7.6788   7.6788
    23.1613  23.1689  24.8330  25.2427  25.2722  25.2722  26.1734  26.7374
    26.7374  27.0577  27.2928  27.5706  27.6767  27.7022  27.7022  27.9597
    28.3518  28.3518  28.4501  28.6396  29.0161  29.0161  29.3873  29.4434
    30.2236  30.2236  30.4999  30.5311  31.4473  31.5051  31.5051  33.1111
    36.7587  37.6937  38.8205  38.8205  40.8720  41.1811  41.1914  41.4121
    41.4121  42.0065  44.8572  45.1814  45.7362  45.7362  47.9897  48.3460
    48.4217  48.4217  50.9877  50.9877  52.3039  52.3039  52.6632  53.0579
    53.0949  53.0949  53.8957  54.0133  54.6248  55.1740  55.2779  55.3652
    56.6840  56.6840  58.5097  58.5209  59.1137  59.4281  59.5187  59.5187

          k = 0.0000 0.1667 0.0000 (  2653 PWs)   bands (ev):

   -61.2775 -61.2467 -61.1722 -61.0095 -60.9820 -60.9820 -21.6103 -21.5926
   -21.4869 -20.6512 -20.5226 -20.1845 -20.1845 -20.1016 -19.8864 -19.8864
   -19.8238 -19.8103 -19.8004 -19.8004 -19.7463 -19.7463 -19.7400 -19.5584
   -19.4335 -19.4335   7.6254   7.6370   7.6370   7.6519   7.6646   7.6646
    23.1347  23.1522  23.6364  24.7015  24.9016  24.9016  26.4081  26.6576
    26.7560  26.7560  27.4592  27.4678  27.4678  27.4908  27.5415  27.8567
    28.9596  29.0098  29.0098  29.4240  29.7201  29.7514  29.7514  29.7980
    30.1602  30.1602  30.2898  30.3688  30.5016  31.1806  31.1806  35.3996
    35.7356  39.9062  39.9062  40.0315  40.1198  40.9794  40.9865  40.9919
    41.0613  41.0613  42.6316  42.6316  46.2974  47.5943  47.8545  48.8450
    48.8450  49.1968  49.6648  51.6139  51.6139  51.9085  52.8387  52.9844
    52.9844  53.1200  54.4197  54.4197  54.7371  55.1548  55.3410  56.1228
    56.3487  56.3487  56.3671  57.0711  57.0711  57.9655  59.3783  60.8307

          k = 0.0000 0.1667 0.1429 (  2662 PWs)   bands (ev):

   -61.2627 -61.2451 -61.2197 -61.0058 -61.0033 -60.9872 -21.6063 -21.5156
   -21.4795 -20.6850 -20.5577 -20.1752 -20.1606 -20.0805 -19.9030 -19.8656
   -19.8427 -19.8181 -19.8019 -19.7826 -19.7652 -19.7548 -19.7279 -19.5811
   -19.5454 -19.4367   7.6236   7.6311   7.6400   7.6525   7.6567   7.6675
    23.1481  23.5123  23.6413  24.7871  24.8520  25.0002  26.4277  26.5285
    26.7087  26.7722  27.2778  27.3714  27.5655  27.5738  27.6500  27.9962
    28.8315  28.9554  29.0402  29.4366  29.4673  29.7138  29.8593  29.9214
    29.9288  30.1022  30.1624  30.3946  30.5332  30.9302  31.2812  35.5178
    35.7380  39.3476  39.4884  39.6190  40.3743  40.8734  40.9850  41.0328
    41.3466  41.7610  42.1093  43.0634  46.6792  47.5471  47.9135  48.4167
    48.7164  49.1205  50.4022  51.1223  51.3065  52.0178  52.8084  53.2195
    53.3111  53.6490  54.2664  54.3375  55.0093  55.4338  55.5988  55.6206
    55.8424  56.4789  56.8200  57.2218  57.2948  57.8432  59.4058  60.2658

          k = 0.0000 0.1667 0.2857 (  2666 PWs)   bands (ev):

   -61.2618 -61.2386 -61.2020 -61.0443 -61.0110 -60.9921 -21.6053 -21.4793
   -21.2545 -20.7397 -20.6215 -20.1572 -20.1362 -19.9892 -19.9209 -19.8978
   -19.8744 -19.8233 -19.7996 -19.7791 -19.7743 -19.7693 -19.7660 -19.7329
   -19.5890 -19.4395   7.6134   7.6339   7.6362   7.6504   7.6592   7.6696
    23.1613  23.6515  24.5555  24.7929  25.0205  25.2400  25.9839  26.5399
    26.7484  26.8612  27.1997  27.2664  27.6269  27.6681  27.7485  28.2787
    28.7103  28.8327  28.8883  28.9790  29.1305  29.5175  29.5554  29.6539
    29.9137  30.1132  30.1925  30.4833  30.5704  30.9029  31.4353  34.9460
    36.0127  38.5093  38.8486  39.1460  40.3760  41.0497  41.2250  41.2476
    41.6888  41.7782  43.0301  44.2366  46.0015  46.4732  47.1371  48.7473
    49.6913  49.8212  50.1687  50.5557  51.3811  52.6282  53.1391  53.2262
    53.2572  53.5775  54.1856  54.6634  54.7979  55.3935  55.4568  56.0050
    56.1601  56.8268  57.1790  57.4512  57.8987  58.2873  59.0732  60.1242

          k = 0.0000 0.1667 0.4286 (  2658 PWs)   bands (ev):

   -61.2435 -61.2290 -61.1468 -61.0799 -61.0035 -61.0012 -21.6063 -21.4759
   -20.9181 -20.7847 -20.5916 -20.2773 -20.1423 -20.1126 -19.9256 -19.8956
   -19.8710 -19.8391 -19.8151 -19.7993 -19.7720 -19.7585 -19.7584 -19.7429
   -19.5915 -19.4301   7.6066   7.6227   7.6374   7.6540   7.6701   7.6790
    23.1741  23.6611  24.9290  25.1972  25.3609  25.4505  26.1591  26.6702
    26.7028  27.0374  27.2549  27.3061  27.5532  27.7994  27.8803  27.9768
    28.3387  28.3868  28.5640  28.6903  28.7317  29.0082  29.2507  29.6029
    29.8126  30.1549  30.2605  30.5178  30.9737  31.5283  31.8276  33.4148
    36.6064  37.4709  38.8420  38.9218  40.8411  41.1113  41.3336  41.4007
    41.8647  42.0163  44.1936  44.8877  45.5619  45.8115  46.4953  48.1463
    49.0116  50.0111  50.9579  51.0841  52.0055  52.3092  53.0550  53.2266
    53.5325  53.6700  54.1320  54.5481  54.6823  55.2788  55.4901  55.6400
    56.6035  57.3340  57.3595  58.2114  58.2590  58.8696  59.3703  59.9254

          k = 0.0000 0.3333 0.0000 (  2677 PWs)   bands (ev):

   -61.2925 -61.2715 -61.1850 -61.0868 -60.9837 -60.9837 -21.6046 -21.5947
   -21.1555 -20.7257 -20.6023 -20.1771 -20.1771 -20.0079 -19.9685 -19.9146
   -19.9146 -19.8061 -19.7965 -19.7963 -19.7963 -19.7640 -19.7640 -19.7516
   -19.4554 -19.4554   7.6046   7.6246   7.6401   7.6401   7.6711   7.6711
    23.1492  23.1642  24.6964  25.0088  25.1611  25.1611  25.7175  26.7517
    26.7517  26.8890  27.4040  27.5031  27.5031  27.5445  27.6628  28.2061
    28.7675  28.8211  28.8211  29.0540  29.0540  29.0988  29.4468  29.5492
    30.2005  30.2005  30.4421  30.5081  30.5094  31.4234  31.4234  34.2213
    36.2952  38.4853  39.0718  39.0718  40.1107  41.1189  41.1362  41.3196
    41.3196  41.9069  44.5488  44.5488  45.6222  45.6691  47.8443  48.6546
    49.4599  49.4599  50.4434  50.4434  51.4584  52.5000  52.8254  52.8254
    53.1471  53.1471  53.9024  54.1050  54.5189  55.4818  55.4825  55.7022
    56.5565  56.5565  57.5955  58.0436  58.7072  58.7073  58.8141  60.1273

          k = 0.0000 0.3333 0.1429 (  2660 PWs)   bands (ev):

   -61.2477 -61.2263 -61.1839 -61.0538 -61.0075 -60.9956 -21.6064 -21.5162
   -21.1390 -20.7465 -20.6225 -20.1545 -20.1371 -20.0053 -19.9464 -19.9200
   -19.8840 -19.8217 -19.7980 -19.7883 -19.7755 -19.7639 -19.7610 -19.7385
   -19.5484 -19.4322   7.6093   7.6325   7.6384   7.6511   7.6643   7.6736
    23.1644  23.5263  24.7858  25.0083  25.1109  25.2820  25.7780  26.6402
    26.7364  26.9184  27.2280  27.2765  27.6385  27.6918  27.7381  28.3180
    28.6918  28.7430  28.7736  28.8674  29.0364  29.1944  29.4222  29.6006
    29.9083  30.1889  30.2412  30.4976  30.8342  31.0696  31.4647  34.4223
    36.2409  38.2468  38.8791  39.0292  40.3717  41.0765  41.2523  41.2707
    41.6691  41.9306  43.5959  44.6900  45.5681  46.1877  47.1360  48.7737
    49.3520  49.8222  50.3447  50.5598  51.6911  52.7714  53.0533  53.1334
    53.1662  53.2518  54.1447  54.6564  54.8908  55.3032  55.3977  55.8123
    56.3441  57.1289  57.3806  57.5225  58.1460  58.5717  59.0684  60.1385

          k = 0.0000 0.3333 0.2857 (  2658 PWs)   bands (ev):

   -61.2326 -61.2008 -61.1742 -61.0532 -61.0381 -61.0110 -21.6021 -21.2501
   -21.1349 -20.7904 -20.6712 -20.1255 -20.0747 -20.0115 -19.9462 -19.9289
   -19.8799 -19.8636 -19.8075 -19.8000 -19.7722 -19.7695 -19.7670 -19.7605
   -19.7340 -19.4327   7.6069   7.6289   7.6349   7.6582   7.6639   7.6736
    23.1802  24.5551  24.9732  24.9838  25.0756  25.5963  26.0192  26.2880
    26.5811  26.9657  27.1222  27.3798  27.5065  27.7970  27.9131  28.4033
    28.5180  28.5656  28.5911  28.6258  28.9765  29.1904  29.2953  29.5760
    29.6474  29.7788  30.0973  30.2216  30.5016  31.5248  31.5776  34.8712
    35.5737  37.4915  38.9448  39.0796  40.9818  41.0874  41.4299  41.5585
    41.8205  42.3029  43.0684  45.1113  45.1405  45.5305  45.7516  48.5566
    49.5760  50.6908  50.9425  51.3990  51.7523  52.7277  53.0406  53.2897
    53.7052  54.0703  54.5766  54.7974  55.1223  55.1540  55.5156  55.6697
    56.3590  56.9244  57.3743  57.7146  58.1250  58.8054  59.4402  59.9694

          k = 0.0000 0.3333 0.4286 (  2654 PWs)   bands (ev):

   -61.2268 -61.1797 -61.1515 -61.0771 -61.0500 -60.9988 -21.5954 -21.1314
   -20.9411 -20.8037 -20.6389 -20.2875 -20.1035 -20.0221 -20.0072 -19.9512
   -19.9074 -19.8663 -19.8364 -19.8040 -19.7759 -19.7582 -19.7532 -19.7476
   -19.7376 -19.4432   7.6029   7.6268   7.6359   7.6584   7.6684   7.6766
    23.1924  24.9602  25.0760  25.0913  25.8179  25.9095  26.1792  26.4153
    26.5402  27.0003  27.1459  27.2528  27.5991  27.8427  27.9065  27.9616
    28.1452  28.1780  28.4791  28.6745  28.8619  28.9008  28.9631  29.3583
    29.4086  29.6048  29.8781  30.2585  30.4509  31.5535  32.6887  34.0478
    35.7232  36.5999  38.8867  39.8667  41.0519  41.1155  41.6347  41.8354
    41.9032  42.7467  43.5187  44.3660  44.5234  44.8244  45.9895  47.3436
    50.2998  51.3978  51.4508  51.9611  52.1461  52.6157  52.7489  53.5524
    53.6496  54.3648  54.4449  55.0705  55.1701  55.2874  55.3201  56.1954
    56.2632  57.1119  57.3882  58.1827  58.6043  58.9872  59.3878  59.7035

          k = 0.0000-0.5000 0.0000 (  2666 PWs)   bands (ev):

   -61.2587 -61.2587 -61.1235 -61.1235 -60.9877 -60.9877 -21.6059 -21.6059
   -20.8057 -20.8057 -20.4597 -20.4597 -20.1668 -20.1668 -19.9122 -19.9122
   -19.8621 -19.8621 -19.7974 -19.7974 -19.7757 -19.7757 -19.7484 -19.7484
   -19.4424 -19.4424   7.6072   7.6072   7.6429   7.6429   7.6785   7.6785
    23.1655  23.1655  25.0126  25.0126  25.2996  25.2996  26.7301  26.7301
    27.0263  27.0263  27.1818  27.1818  27.6725  27.6725  27.8744  27.8744
    28.1086  28.1086  28.5382  28.5382  29.0147  29.0147  29.3951  29.3951
    30.2293  30.2293  30.5246  30.5246  31.5241  31.5241  32.2517  32.2517
    37.1869  37.1869  38.7614  38.7614  41.2010  41.2010  41.4325  41.4325
    41.5433  41.5433  44.8703  44.8703  46.2512  46.2512  47.8946  47.8946
    48.1462  48.1462  51.3847  51.3847  51.9052  51.9052  53.1120  53.1120
    53.2954  53.2954  53.6863  53.6863  54.8454  54.8454  55.2739  55.2739
    56.7027  56.7027  58.9387  58.9387  59.0356  59.0357  59.8635  59.8637

          k = 0.0000-0.5000 0.1429 (  2666 PWs)   bands (ev):

   -61.2517 -61.2515 -61.1251 -61.1220 -61.0001 -60.9951 -21.6029 -21.5096
   -20.8322 -20.8102 -20.4809 -20.4684 -20.1461 -20.1267 -19.9214 -19.9024
   -19.8526 -19.8457 -19.8362 -19.7976 -19.7738 -19.7626 -19.7603 -19.7435
   -19.5582 -19.4382   7.6068   7.6142   7.6380   7.6517   7.6723   7.6800
    23.1722  23.5324  25.0170  25.1703  25.2424  25.4347  26.6672  26.6808
    27.0233  27.0396  27.0856  27.2909  27.4089  27.6441  27.8430  28.0297
    28.0702  28.2412  28.6038  28.6073  28.7734  28.9986  29.2616  29.5593
    29.9041  30.2099  30.3029  30.5228  31.1211  31.5370  32.5069  32.5147
    36.9897  37.1495  38.7913  38.8573  41.0699  41.1274  41.3707  41.5886
    41.6849  41.7832  44.5871  44.8384  45.4597  46.2939  46.6134  47.6996
    48.8226  49.7048  51.1341  51.5671  51.7747  51.8573  53.2250  53.4427
    53.4896  53.7509  53.8108  54.3223  54.5804  55.1922  55.4742  55.4965
    56.7625  57.2028  57.4960  58.3691  58.8298  59.0007  59.2295  60.0940

          k = 0.0000-0.5000 0.2857 (  2658 PWs)   bands (ev):

   -61.2231 -61.1993 -61.1206 -61.1174 -61.0334 -61.0107 -21.6023 -21.2371
   -20.8883 -20.8102 -20.5050 -20.4692 -20.1128 -20.0416 -19.9487 -19.9021
   -19.8963 -19.8460 -19.8300 -19.7955 -19.7856 -19.7621 -19.7557 -19.7514
   -19.7513 -19.4440   7.6042   7.6289   7.6301   7.6626   7.6634   7.6771
    23.1899  24.5597  25.0344  25.1283  25.6271  25.8052  26.4659  26.5815
    26.9293  26.9833  27.0622  27.1396  27.5568  27.6212  27.9381  27.9866
    28.0495  28.1212  28.5001  28.6651  28.8242  28.9269  28.9500  29.3989
    29.6438  29.8085  30.0521  30.2668  30.4712  31.5535  33.1106  33.1193
    36.2845  36.5779  38.8574  39.7008  40.8449  41.1131  41.6521  41.7536
    41.9055  42.5228  44.1719  44.1955  44.6160  45.0386  46.3572  47.1497
    50.0669  51.1632  51.5958  51.6930  52.0448  52.0753  52.9350  53.7309
    53.9830  54.2692  54.2842  54.7473  54.9551  55.2504  55.4461  55.9340
    56.6095  56.7626  57.9695  58.1456  58.2051  59.1801  59.2176  60.0229

          k = 0.0000-0.5000 0.4286 (  2662 PWs)   bands (ev):

   -61.2454 -61.1612 -61.1280 -61.1212 -61.0773 -60.9938 -21.5831 -20.9704
   -20.9352 -20.7063 -20.5263 -20.4743 -20.2920 -20.0708 -19.9698 -19.9591
   -19.9548 -19.8642 -19.8600 -19.8316 -19.7623 -19.7573 -19.7484 -19.7386
   -19.7331 -19.4523   7.5945   7.6216   7.6360   7.6541   7.6758   7.6773
    23.2005  25.0315  25.0462  25.9522  26.2506  26.2823  26.2865  26.5888
    26.7601  26.8274  27.0389  27.3685  27.4207  27.5160  27.5495  27.7937
    27.9544  28.2742  28.5614  28.6718  28.6934  28.7159  28.7775  28.8479
    28.9234  29.3886  30.0565  30.2756  30.3336  31.5582  33.7902  33.7958
    35.4476  35.7789  38.9112  40.8566  41.0482  41.1309  41.8331  41.9236
    42.0595  43.2880  43.4144  43.7221  43.9926  44.0614  46.3654  46.4908
    51.0711  51.4252  51.8781  52.0763  52.6600  53.0781  53.3453  53.3979
    53.4560  53.6037  54.4042  54.4117  55.4138  55.9942  56.2759  56.4165
    56.6119  57.5539  57.5880  57.9016  58.9022  59.0002  59.0721  59.5079

          k = 0.2000 0.0000 0.0000 (  2661 PWs)   bands (ev):

   -61.2781 -61.2455 -61.2103 -61.0172 -60.9829 -60.9829 -21.6098 -21.5916
   -21.4322 -20.6703 -20.5397 -20.1823 -20.1823 -20.0750 -19.8976 -19.8976
   -19.8353 -19.8079 -19.7968 -19.7968 -19.7497 -19.7497 -19.7429 -19.6305
   -19.4423 -19.4423   7.6187   7.6365   7.6365   7.6483   7.6664   7.6664
    23.1368  23.1543  23.8510  24.6832  24.9494  24.9494  26.2786  26.6939
    26.7560  26.7560  27.4569  27.4569  27.4727  27.4819  27.5732  27.9269
    28.9268  28.9988  28.9988  29.5749  29.6013  29.6013  29.6546  29.7464
    30.1662  30.1662  30.2860  30.3247  30.4071  31.2341  31.2341  35.2842
    35.8231  39.7076  39.7076  39.7348  39.9579  41.0099  41.0109  41.1156
    41.1156  41.1652  42.9800  42.9800  46.2300  47.2701  47.8148  49.0100
    49.0100  49.3770  49.5986  51.4867  51.4867  51.9746  52.7792  52.7792
    53.1464  53.3808  54.1609  54.1609  54.6683  55.2268  55.4628  56.2976
    56.3993  56.3994  56.4129  57.3936  57.3936  57.9222  59.1645  60.9666

          k = 0.2000 0.0000 0.1429 (  2667 PWs)   bands (ev):

   -61.2647 -61.2417 -61.2302 -61.0171 -61.0002 -60.9987 -21.6087 -21.5115
   -21.4291 -20.6981 -20.5736 -20.1725 -20.1590 -20.0583 -19.9118 -19.8712
   -19.8417 -19.8188 -19.8012 -19.7858 -19.7719 -19.7540 -19.7311 -19.6476
   -19.5505 -19.4372   7.6229   7.6324   7.6422   7.6442   7.6561   7.6670
    23.1513  23.5146  23.8551  24.7734  24.8967  25.0516  26.3088  26.5405
    26.7337  26.7816  27.2466  27.3488  27.5860  27.5946  27.6706  28.0628
    28.8001  28.9325  29.0261  29.3383  29.4190  29.6799  29.8212  29.8276
    30.0042  30.1253  30.1661  30.3709  30.4211  30.9432  31.3224  35.4292
    35.8049  39.1653  39.2660  39.4883  40.3262  40.9919  40.9987  41.0711
    41.4230  41.6837  42.3912  43.3313  46.5917  47.2686  47.7577  48.4254
    49.0873  49.2823  50.3608  51.0412  51.1479  52.1485  52.8535  53.1653
    53.3590  53.8679  54.1900  54.2547  54.8360  55.4918  55.5486  55.7698
    56.1180  56.3930  56.8503  57.3183  57.5649  57.8291  59.2546  60.3359

          k = 0.2000 0.0000 0.2857 (  2659 PWs)   bands (ev):

   -61.2472 -61.2236 -61.1943 -61.0359 -61.0171 -60.9962 -21.6046 -21.4230
   -21.2494 -20.7496 -20.6313 -20.1501 -20.1232 -19.9782 -19.9287 -19.8946
   -19.8555 -19.8235 -19.7987 -19.7732 -19.7703 -19.7683 -19.7668 -19.7324
   -19.6446 -19.4354   7.6140   7.6333   7.6390   7.6557   7.6586   7.6692
    23.1656  23.8649  24.5568  24.8393  25.0032  25.3026  26.0200  26.4467
    26.7346  26.8667  27.2034  27.2350  27.6133  27.6942  27.7935  28.3419
    28.6866  28.7851  28.8360  28.9039  29.1014  29.4982  29.5177  29.6835
    29.8805  29.9964  30.1938  30.4929  30.7012  30.7345  31.4568  35.0477
    35.8987  38.3328  38.7947  39.1048  40.5291  41.0545  41.2554  41.2827
    41.8168  41.8239  42.8884  44.3630  45.9066  46.3938  46.8104  48.9057
    49.6425  49.9731  50.1065  50.7790  51.4079  52.6682  53.0978  53.3750
    53.4298  53.6479  54.3440  54.5921  54.9028  55.2901  55.5635  55.9996
    56.1392  56.8033  57.3532  57.4442  57.7756  58.3491  59.1745  59.9934

          k = 0.2000 0.0000 0.4286 (  2660 PWs)   bands (ev):

   -61.2340 -61.2314 -61.1479 -61.0866 -61.0077 -61.0069 -21.6057 -21.4225
   -20.9228 -20.7915 -20.6066 -20.2797 -20.1356 -20.0969 -19.9319 -19.8911
   -19.8653 -19.8526 -19.8182 -19.8022 -19.7715 -19.7583 -19.7567 -19.7388
   -19.6530 -19.4294   7.6073   7.6241   7.6331   7.6569   7.6665   7.6782
    23.1772  23.8728  24.9563  25.1718  25.4252  25.5254  26.1548  26.6274
    26.6820  27.0377  27.1795  27.3554  27.4974  27.8175  27.9142  27.9918
    28.3268  28.3591  28.6018  28.6533  28.7238  28.9969  29.1894  29.6555
    29.6843  30.0347  30.2522  30.5125  30.7556  31.5350  31.9679  33.5315
    36.4848  37.3374  38.8502  39.0445  40.8237  41.1058  41.3791  41.4826
    42.0092  42.0244  44.0164  44.8170  45.3940  45.8412  46.1209  48.0239
    49.2739  50.4114  51.0197  51.1328  51.9851  52.3320  53.0762  53.2763
    53.7214  53.8686  54.2568  54.4340  54.7742  55.3400  55.5548  55.7419
    56.4492  57.1743  57.5498  58.0839  58.2372  58.7891  59.3742  59.8696

          k = 0.2000 0.1667 0.0000 (  2672 PWs)   bands (ev):

   -61.2695 -61.2443 -61.2255 -61.0265 -61.0184 -60.9990 -21.6113 -21.4885
   -21.4274 -20.7072 -20.5852 -20.1667 -20.1550 -20.0480 -19.9172 -19.8638
   -19.8448 -19.8232 -19.7997 -19.7895 -19.7733 -19.7687 -19.7309 -19.6512
   -19.5860 -19.4418   7.6204   7.6321   7.6451   7.6453   7.6512   7.6630
    23.1526  23.6450  23.8574  24.8012  24.8859  25.0856  26.3198  26.4688
    26.7446  26.7884  27.2195  27.3297  27.6005  27.6035  27.6968  28.1057
    28.7761  28.9108  29.0185  29.2780  29.3763  29.6630  29.8040  29.8359
    30.0607  30.0660  30.1675  30.3579  30.4343  30.8601  31.3456  35.4699
    35.7750  39.0464  39.1307  39.4244  40.3961  40.9865  41.0049  41.0966
    41.4970  41.7920  42.3153  43.4570  46.5716  47.1601  47.6356  48.5293
    49.0892  49.3805  50.4739  50.8665  51.1224  52.2057  52.9279  53.2398
    53.3316  54.0356  54.1858  54.2682  54.8041  55.3686  55.6538  55.8871
    56.0773  56.3268  56.9203  57.3210  57.6472  57.7897  59.2657  60.2934

          k = 0.2000 0.1667 0.1429 (  2665 PWs)   bands (ev):

   -61.2524 -61.2396 -61.2258 -61.0229 -61.0172 -60.9870 -21.5155 -21.4739
   -21.4223 -20.7316 -20.6138 -20.1526 -20.1471 -20.0281 -19.8831 -19.8692
   -19.8586 -19.7949 -19.7928 -19.7880 -19.7847 -19.7572 -19.7423 -19.6481
   -19.5890 -19.5459   7.6244   7.6364   7.6396   7.6488   7.6545   7.6588
    23.5216  23.6505  23.8620  24.9002  24.9893  25.0426  26.3543  26.4929
    26.5742  26.8121  27.1768  27.2278  27.6316  27.6485  27.7422  28.2242
    28.6724  28.6758  29.1259  29.2725  29.3654  29.6380  29.6944  29.7930
    29.8784  30.0555  30.1502  30.4203  30.4891  30.9198  31.0694  35.6304
    35.8333  38.4349  39.1140  39.3259  40.5501  40.6816  41.1450  41.4017
    41.4529  42.2326  42.4939  42.8113  47.1581  47.3734  47.6617  48.6351
    48.6595  48.9690  49.1212  51.7069  52.2236  52.3960  53.0964  53.2617
    53.3083  53.8147  54.1789  54.5665  55.4151  55.4646  55.5985  55.7014
    56.1130  56.2872  56.6632  57.6013  57.6848  58.2140  59.4446  60.3343

          k = 0.2000 0.1667 0.2857 (  2655 PWs)   bands (ev):

   -61.2312 -61.2146 -61.1853 -61.0420 -61.0093 -61.0042 -21.4741 -21.4143
   -21.2463 -20.7793 -20.6660 -20.1271 -20.1121 -19.9626 -19.8932 -19.8811
   -19.8689 -19.8132 -19.8053 -19.7798 -19.7776 -19.7659 -19.7525 -19.7423
   -19.6411 -19.5832   7.6198   7.6392   7.6419   7.6447   7.6585   7.6665
    23.6635  23.8730  24.5639  24.9869  25.1624  25.2501  26.0725  26.4826
    26.6020  26.8889  27.0465  27.1822  27.6139  27.7173  27.8461  28.4015
    28.4579  28.4847  28.9828  29.1097  29.1334  29.4532  29.4637  29.5098
    29.8009  29.9731  30.0020  30.1390  30.7486  31.0157  31.2141  35.3221
    36.0658  37.9485  38.4172  39.0404  40.7810  40.8776  41.3686  41.5006
    41.8128  42.2996  42.9436  43.2993  46.1569  46.6644  47.5078  47.7751
    48.9921  49.2181  49.9599  52.0806  52.7815  53.0049  53.1990  53.3047
    53.4553  53.6205  54.0811  54.6936  55.4356  55.7537  55.8569  56.1245
    56.2402  56.7071  57.1079  57.5099  57.6690  58.9119  59.3892  59.7674

          k = 0.2000 0.1667 0.4286 (  2655 PWs)   bands (ev):

   -61.2249 -61.2195 -61.1366 -61.0906 -61.0120 -60.9981 -21.4665 -21.4125
   -20.9242 -20.8217 -20.6306 -20.2894 -20.1039 -20.0935 -19.9100 -19.8984
   -19.8582 -19.8335 -19.8099 -19.7932 -19.7698 -19.7658 -19.7502 -19.7424
   -19.6465 -19.5869   7.6164   7.6231   7.6423   7.6483   7.6687   7.6706
    23.6745  23.8830  25.1233  25.3653  25.4601  25.4830  26.1486  26.6676
    26.7841  26.9573  27.0139  27.2425  27.4101  27.6821  27.9709  27.9787
    28.1492  28.3950  28.6303  28.7568  28.8617  28.9635  29.2824  29.4133
    29.6817  29.8114  30.0403  30.1672  30.7976  31.0373  32.3977  33.8902
    36.6469  37.4351  38.3322  38.7772  41.0704  41.2357  41.3553  41.7254
    42.0709  42.1024  43.9837  44.2081  45.0108  45.6705  46.6885  47.0090
    49.5623  49.7633  51.2119  51.9408  52.3316  52.4057  53.6303  53.6376
    53.9144  54.0589  54.6118  54.8336  54.9398  55.5889  55.8090  55.9785
    56.7175  56.8804  57.2325  57.7034  58.2211  59.1831  59.2631  59.5392

          k = 0.2000 0.3333 0.0000 (  2656 PWs)   bands (ev):

   -61.2447 -61.2261 -61.1734 -61.0527 -61.0071 -60.9924 -21.6014 -21.4180
   -21.1374 -20.7664 -20.6409 -20.1452 -20.1129 -20.0080 -19.9402 -19.9289
   -19.8598 -19.8335 -19.7987 -19.7854 -19.7672 -19.7640 -19.7636 -19.7317
   -19.6474 -19.4355   7.6097   7.6329   7.6365   7.6559   7.6631   7.6741
    23.1703  23.8682  24.8587  25.0022  25.0862  25.3919  25.8460  26.5204
    26.6970  26.9218  27.1999  27.2499  27.5995  27.7348  27.8233  28.4158
    28.6368  28.6714  28.7139  28.7397  29.0286  29.2116  29.3705  29.6604
    29.7519  30.0148  30.2131  30.5048  30.7252  31.0916  31.4914  34.5927
    36.0718  37.9900  38.8624  38.9964  40.5863  41.0759  41.3047  41.3624
    41.9159  41.9204  43.2612  44.8289  45.4466  46.0890  46.5404  49.0675
    49.1255  50.1942  50.4091  50.8457  51.7339  52.7871  53.0410  53.1886
    53.5408  53.5576  54.3648  54.5906  55.1782  55.2996  55.3738  56.0126
    56.0332  57.2298  57.4091  57.5338  57.8744  58.5868  59.2273  59.8796

          k = 0.2000 0.3333 0.1429 (  2657 PWs)   bands (ev):

   -61.2297 -61.2257 -61.1721 -61.0618 -61.0052 -61.0034 -21.5059 -21.4140
   -21.1337 -20.7874 -20.6686 -20.1299 -20.1093 -19.9968 -19.9351 -19.8979
   -19.8701 -19.8221 -19.8072 -19.7919 -19.7781 -19.7688 -19.7525 -19.7425
   -19.6475 -19.5480   7.6147   7.6350   7.6386   7.6491   7.6620   7.6687
    23.5378  23.8746  24.9720  25.0173  25.2035  25.3489  25.8837  26.5434
    26.7048  26.8696  27.0396  27.2305  27.5685  27.7434  27.8813  28.3264
    28.4120  28.5250  28.8711  28.9665  29.0665  29.2117  29.3716  29.4783
    29.7620  29.9452  30.0089  30.2224  30.7595  31.1431  31.4552  34.8228
    36.2120  38.0556  38.1821  39.0291  40.8087  40.9608  41.3964  41.4654
    41.9760  42.1654  43.2802  43.7531  45.6834  46.4393  47.0603  47.7535
    49.2326  49.4092  50.4904  51.8292  52.5234  52.8774  53.2199  53.3112
    53.4916  53.8153  54.1815  54.8570  55.2679  55.5492  55.7836  56.1644
    56.3872  56.7903  57.2234  57.4998  57.7071  59.1370  59.3348  59.6840

          k = 0.2000 0.3333 0.2857 (  2656 PWs)   bands (ev):

   -61.2193 -61.2001 -61.1785 -61.0506 -61.0259 -61.0126 -21.4098 -21.2345
   -21.1196 -20.8338 -20.7228 -20.1036 -20.0705 -19.9995 -19.9208 -19.8985
   -19.8808 -19.8336 -19.8123 -19.8073 -19.7849 -19.7731 -19.7672 -19.7578
   -19.7479 -19.6466   7.6200   7.6376   7.6394   7.6508   7.6539   7.6635
    23.8900  24.5717  25.0300  25.2239  25.2985  25.5426  26.0653  26.3287
    26.6481  26.8021  27.0247  27.2067  27.5514  27.6792  27.9546  28.0433
    28.1430  28.6764  28.8552  28.8651  28.9979  29.1405  29.3472  29.3667
    29.5501  29.6765  29.8009  29.9823  30.1563  30.8401  32.2503  35.3916
    35.9753  37.6582  37.7960  38.8117  41.0660  41.3096  41.6894  41.7443
    42.0106  42.6055  42.9940  43.4643  45.3149  45.7297  46.4722  47.1515
    49.2523  50.0259  50.4230  52.8013  53.0831  53.2028  53.5152  53.5844
    53.8693  54.0766  54.5332  54.9112  55.3854  55.7694  56.0728  56.2757
    56.5982  56.8069  57.5443  57.6918  58.1501  58.9081  59.2532  59.3893

          k = 0.2000 0.3333 0.4286 (  2643 PWs)   bands (ev):

   -61.1902 -61.1809 -61.1322 -61.0726 -61.0221 -61.0140 -21.3977 -21.1130
   -20.9349 -20.8464 -20.6720 -20.2964 -20.0726 -20.0151 -19.9913 -19.9052
   -19.8878 -19.8347 -19.8210 -19.8045 -19.7778 -19.7734 -19.7633 -19.7524
   -19.7418 -19.6419   7.6189   7.6365   7.6374   7.6562   7.6599   7.6682
    23.9032  25.0303  25.3306  25.3814  25.8376  25.8803  26.1706  26.5430
    26.6624  26.8722  27.0042  27.2121  27.3580  27.5255  27.7007  27.8444
    28.0739  28.4400  28.5652  28.6892  28.8810  28.9771  29.0668  29.2242
    29.4670  29.4746  29.6467  29.7335  29.9656  30.8605  33.3736  34.6983
    36.1560  36.9676  38.0636  38.9077  41.2519  41.5628  41.7302  42.0271
    42.1237  42.7520  43.4113  43.9556  44.2228  45.1332  45.7101  46.2304
    49.8968  50.3640  51.3706  52.6799  53.0572  53.2666  53.6164  53.9801
    54.4104  54.6348  54.9141  55.0563  55.2590  55.7601  56.1908  56.4279
    56.6124  57.0030  57.5270  57.8074  58.5746  58.7327  58.9360  59.0675

          k = 0.2000-0.5000 0.0000 (  2658 PWs)   bands (ev):

   -61.2374 -61.2232 -61.1176 -61.1170 -61.0108 -60.9949 -21.6018 -21.4220
   -20.8513 -20.8087 -20.4909 -20.4697 -20.1340 -20.0906 -19.9262 -19.8918
   -19.8572 -19.8471 -19.8314 -19.7983 -19.7643 -19.7629 -19.7546 -19.7348
   -19.6478 -19.4316   7.6056   7.6200   7.6359   7.6581   7.6696   7.6807
    23.1780  23.8745  25.0217  25.1965  25.3215  25.5602  26.6093  26.6259
    27.0173  27.0178  27.0773  27.2521  27.3888  27.6254  27.8671  28.0358
    28.1126  28.2319  28.6308  28.6374  28.6909  28.9801  29.1491  29.6573
    29.6753  30.0386  30.2634  30.5128  30.7639  31.5453  32.7263  32.7276
    36.7679  36.9938  38.8157  39.0934  40.9085  41.1149  41.5136  41.6090
    41.7847  42.0466  44.4169  44.7087  45.0137  45.9956  46.3248  47.5189
    49.3042  50.4603  51.1214  51.7059  51.7293  51.8846  53.1852  53.6314
    53.7776  53.9583  54.1290  54.3647  54.5417  55.3609  55.5936  55.6654
    56.7567  56.9273  57.5937  58.1600  58.7135  58.8508  59.1348  60.0418

          k = 0.2000-0.5000 0.1429 (  2658 PWs)   bands (ev):

   -61.2286 -61.2213 -61.1170 -61.1164 -61.0104 -61.0026 -21.5029 -21.4165
   -20.8550 -20.8376 -20.4897 -20.4831 -20.1145 -20.0941 -19.9172 -19.8987
   -19.8426 -19.8404 -19.8128 -19.8022 -19.7645 -19.7639 -19.7493 -19.7464
   -19.6474 -19.5497   7.6142   7.6211   7.6403   7.6489   7.6690   7.6732
    23.5461  23.8815  25.1793  25.3176  25.3514  25.5154  26.6506  26.6566
    26.9839  27.0451  27.0947  27.1477  27.2440  27.4128  27.9476  28.0123
    28.1086  28.1664  28.6588  28.6692  28.8267  28.9263  29.2600  29.4649
    29.6711  29.8931  30.0578  30.2553  30.8011  31.1693  33.0190  33.0223
    36.9573  37.0330  38.5471  38.7577  41.1264  41.1379  41.5806  41.7683
    41.8505  42.0148  44.3853  44.5030  44.9400  45.3772  46.4988  47.0595
    49.5561  49.9805  51.5252  51.6798  52.1012  52.1100  53.7357  53.8798
    53.9046  53.9769  54.5145  54.6369  55.1040  55.1113  55.7932  55.9597
    56.7993  56.9682  57.2787  57.5991  58.7277  58.8385  59.3904  59.5916

          k = 0.2000-0.5000 0.2857 (  2648 PWs)   bands (ev):

   -61.2014 -61.1998 -61.1113 -61.1071 -61.0104 -61.0099 -21.3994 -21.2262
   -20.8899 -20.8550 -20.5113 -20.4965 -20.0742 -20.0390 -19.9131 -19.9114
   -19.8571 -19.8359 -19.8138 -19.7940 -19.7897 -19.7703 -19.7679 -19.7477
   -19.7387 -19.6447   7.6194   7.6303   7.6382   7.6551   7.6611   7.6696
    23.8991  24.5787  25.3387  25.4247  25.6380  25.7550  26.6349  26.6435
    26.8933  26.9985  27.0077  27.1160  27.1600  27.2286  27.8136  27.8868
    28.1056  28.2025  28.6155  28.6802  28.9174  28.9512  29.0654  29.2300
    29.5124  29.6433  29.6819  30.0008  30.1231  30.8503  33.7323  33.7355
    36.7696  36.8218  38.1935  38.6876  41.2950  41.4481  41.6805  41.9656
    42.1229  42.4561  43.9926  43.9997  44.4223  44.8876  45.8672  46.4276
    49.8643  50.0257  51.9983  52.0245  52.8087  52.9727  53.9173  54.1245
    54.2957  54.6282  54.7619  54.9356  54.9869  55.5355  56.2087  56.5831
    56.7170  56.7893  57.4803  57.8760  58.6182  58.8253  58.8319  59.1936

          k = 0.2000-0.5000 0.4286 (  2646 PWs)   bands (ev):

   -61.1901 -61.1359 -61.1176 -61.1052 -61.0625 -61.0169 -21.3963 -20.9644
   -20.9382 -20.7304 -20.5291 -20.5002 -20.2956 -20.0232 -19.9654 -19.9176
   -19.9127 -19.8310 -19.8264 -19.8218 -19.7751 -19.7629 -19.7547 -19.7466
   -19.7462 -19.6437   7.6150   7.6326   7.6409   7.6534   7.6639   7.6663
    23.9114  25.3459  25.3585  25.9889  26.2759  26.2869  26.5313  26.6158
    26.7242  26.8943  26.8964  27.2001  27.2084  27.3105  27.3330  27.5464
    28.0470  28.2557  28.4833  28.5740  28.6361  28.8281  28.8629  28.9195
    29.2583  29.3040  29.6056  29.6454  29.8415  30.8791  34.5832  34.5951
    35.9006  36.0831  38.2505  39.3179  41.3824  41.4229  41.9819  42.0716
    42.2589  43.3107  43.5520  43.6096  44.0828  44.7922  45.0021  45.2722
    50.3852  51.2004  52.0409  52.0864  52.8141  53.6132  53.6770  54.0503
    54.3790  55.1037  55.4675  55.4823  55.7474  55.9192  56.1077  56.2291
    56.5277  57.0682  57.6650  57.7604  58.2429  58.3616  59.2286  59.2326

          k = 0.4000 0.0000 0.0000 (  2657 PWs)   bands (ev):

   -61.2554 -61.2479 -61.1637 -61.0726 -60.9769 -60.9769 -21.6008 -21.5939
   -20.9750 -20.7442 -20.5810 -20.1878 -20.1690 -20.1690 -19.9134 -19.9134
   -19.9022 -19.8196 -19.7863 -19.7863 -19.7826 -19.7565 -19.7565 -19.7555
   -19.4442 -19.4442   7.6051   7.6229   7.6436   7.6436   7.6784   7.6784
    23.1588  23.1674  24.7797  25.2469  25.2469  25.3279  25.8593  26.7421
    26.7421  27.0067  27.3317  27.5751  27.6270  27.6270  27.6759  28.2049
    28.4817  28.4929  28.4929  28.6787  29.0195  29.0195  29.3969  29.4713
    30.2186  30.2186  30.4856  30.5286  31.1503  31.4869  31.4869  33.4566
    36.6079  37.9188  38.8757  38.8757  40.6110  41.1684  41.1814  41.3912
    41.3912  42.0604  44.9968  45.3286  45.3935  45.3935  47.9374  48.4297
    48.7678  48.7678  50.7770  50.7770  52.3298  52.5191  52.5191  52.8820
    53.0668  53.0668  53.9514  54.1211  54.5724  55.3192  55.3341  55.4238
    56.6537  56.6538  58.2358  58.3742  59.0223  59.2950  59.2951  59.6575

          k = 0.4000 0.0000 0.1429 (  2659 PWs)   bands (ev):

   -61.2436 -61.2343 -61.1552 -61.0762 -61.0036 -60.9968 -21.6078 -21.5084
   -20.9780 -20.7685 -20.6103 -20.1920 -20.1476 -20.1256 -19.9221 -19.9004
   -19.8835 -19.8286 -19.8122 -19.7989 -19.7734 -19.7634 -19.7599 -19.7440
   -19.5545 -19.4300   7.6070   7.6239   7.6382   7.6518   7.6707   7.6782
    23.1702  23.5303  24.8612  25.1892  25.3757  25.3936  25.8674  26.6951
    26.7049  27.0092  27.2672  27.2937  27.6159  27.7594  27.8018  28.2101
    28.4747  28.5072  28.5384  28.7121  28.8041  29.0277  29.3179  29.5729
    29.9028  30.2019  30.2797  30.5157  31.0910  31.4572  31.5102  33.6740
    36.5305  37.7452  38.8674  38.8797  40.6924  41.1076  41.2858  41.3260
    41.7413  42.0656  44.1398  45.0420  45.4676  45.8076  46.8608  48.5582
    48.8419  49.7527  50.8114  50.8274  52.0737  52.5480  52.8251  53.1504
    53.3744  53.4011  54.1307  54.6317  54.7429  55.2600  55.3817  55.6276
    56.5722  57.2075  57.5211  58.0116  58.2999  58.8519  59.3045  60.0300

          k = 0.4000 0.0000 0.2857 (  2657 PWs)   bands (ev):

   -61.2285 -61.1964 -61.1556 -61.0789 -61.0359 -61.0069 -21.6029 -21.2457
   -20.9816 -20.8035 -20.6585 -20.1997 -20.1199 -20.0523 -19.9491 -19.9086
   -19.8845 -19.8725 -19.8146 -19.7999 -19.7778 -19.7599 -19.7598 -19.7566
   -19.7369 -19.4389   7.6052   7.6288   7.6340   7.6595   7.6631   7.6753
    23.1859  24.5583  25.0001  25.0912  25.6163  25.7230  25.9550  26.4971
    26.5099  27.0539  27.0640  27.4054  27.4857  27.8521  27.9466  28.1182
    28.3072  28.3881  28.5285  28.6514  28.8720  28.9549  29.1001  29.4461
    29.6335  29.8000  30.0568  30.2451  30.4875  31.5436  32.1401  34.1784
    35.8789  37.0608  38.8893  39.4042  40.9602  41.1039  41.4979  41.6765
    41.9359  42.4460  43.4560  44.6666  45.0627  45.3660  45.6818  47.8920
    49.8625  51.1157  51.2705  51.3554  52.0204  52.7215  52.8251  53.3063
    53.8315  54.2748  54.4982  54.8118  55.0641  55.1790  55.4456  56.0127
    56.1337  57.1657  57.3575  57.9469  58.4164  58.8395  59.4687  59.9277

          k = 0.4000 0.0000 0.4286 (  2657 PWs)   bands (ev):

   -61.2313 -61.1567 -61.1426 -61.0959 -61.0709 -61.0019 -21.5906 -21.0030
   -20.9525 -20.7697 -20.6444 -20.2957 -20.1996 -20.0898 -19.9795 -19.9624
   -19.9327 -19.8722 -19.8344 -19.8206 -19.7614 -19.7601 -19.7506 -19.7416
   -19.7373 -19.4490   7.5979   7.6249   7.6360   7.6571   7.6728   7.6768
    23.1986  25.0329  25.0510  25.6788  25.9865  26.1038  26.3267  26.3347
    26.4859  26.9830  27.1318  27.2431  27.5802  27.6193  27.8874  27.9369
    28.0593  28.1607  28.4548  28.6910  28.8042  28.8785  28.9027  29.0216
    29.0954  29.3616  29.9769  30.2636  30.3967  31.5571  33.1239  34.1698
    35.4218  36.1964  38.9004  40.3355  41.1229  41.2019  41.7571  41.8523
    41.9728  43.0677  43.4062  44.0248  44.2092  44.3591  46.1057  46.9429
    50.7016  51.5268  51.7146  52.0501  52.6309  52.8037  52.8797  53.2890
    53.6591  53.9529  54.4400  54.8508  55.3271  55.7234  55.7610  56.2079
    56.7082  57.1058  57.3167  58.5027  58.7103  59.0206  59.1510  59.2641

          k = 0.4000 0.1667 0.0000 (  2659 PWs)   bands (ev):

   -61.2396 -61.2307 -61.1549 -61.0771 -61.0073 -61.0009 -21.6076 -21.4754
   -20.9780 -20.7747 -20.6178 -20.1925 -20.1438 -20.1148 -19.9257 -19.8987
   -19.8783 -19.8378 -19.8113 -19.7970 -19.7735 -19.7627 -19.7613 -19.7410
   -19.5928 -19.4291   7.6070   7.6247   7.6371   7.6538   7.6686   7.6776
    23.1726  23.6600  24.8855  25.1723  25.4203  25.4210  25.8712  26.6739
    26.6838  27.0053  27.2413  27.2853  27.5897  27.7744  27.8361  28.2176
    28.4646  28.4929  28.5565  28.7335  28.7486  29.0243  29.2826  29.6068
    29.8165  30.1505  30.2499  30.5150  30.9623  31.5166  31.5451  33.7472
    36.4721  37.6647  38.8808  38.9066  40.7108  41.1026  41.2938  41.3759
    41.8435  42.0588  43.9832  45.0061  45.4940  45.7450  46.6002  48.4792
    48.9937  49.9984  50.8542  50.8614  52.0394  52.5603  52.8811  53.1617
    53.4967  53.5472  54.1926  54.5856  54.8519  55.2835  55.4225  55.7019
    56.4819  57.3661  57.3818  57.9655  58.1711  58.8020  59.3347  59.9116

          k = 0.4000 0.1667 0.1429 (  2662 PWs)   bands (ev):

   -61.2369 -61.2330 -61.1518 -61.0917 -61.0119 -60.9992 -21.5066 -21.4683
   -20.9780 -20.7969 -20.6436 -20.2006 -20.1212 -20.1141 -19.9138 -19.8995
   -19.8755 -19.8301 -19.8134 -19.7986 -19.7739 -19.7705 -19.7577 -19.7431
   -19.5923 -19.5545   7.6118   7.6250   7.6423   7.6457   7.6685   7.6696
    23.5396  23.6666  24.9951  25.3089  25.3733  25.4604  25.8784  26.6627
    26.7614  26.9759  27.0219  27.2794  27.4976  27.7898  27.9029  28.1082
    28.3117  28.5355  28.6118  28.7659  28.8880  28.9871  29.3527  29.4424
    29.8187  29.9121  30.1658  30.2515  30.9901  31.1538  31.8693  33.9908
    36.5522  37.6891  38.4201  38.8830  40.9777  41.0405  41.2630  41.5640
    41.9711  42.0979  43.9832  44.1735  45.2723  46.1360  46.8418  47.5079
    49.3481  49.5959  50.9499  51.6029  52.2629  52.4238  53.3416  53.3580
    53.6585  53.8119  54.5126  54.7683  55.0189  55.3288  55.7388  55.8702
    56.8173  57.0155  57.0705  57.5507  58.0012  59.2987  59.3512  59.6497

          k = 0.4000 0.1667 0.2857 (  2650 PWs)   bands (ev):

   -61.2121 -61.1961 -61.1553 -61.0643 -61.0212 -61.0054 -21.4636 -21.2308
   -20.9735 -20.8353 -20.6878 -20.2104 -20.0916 -20.0466 -19.9146 -19.9086
   -19.8717 -19.8389 -19.8164 -19.8030 -19.7803 -19.7753 -19.7627 -19.7473
   -19.7401 -19.5830   7.6165   7.6338   7.6370   7.6565   7.6598   7.6686
    23.6830  24.5721  25.1907  25.2925  25.6323  25.6831  25.9610  26.5155
    26.6744  26.8635  27.0264  27.2801  27.4319  27.6756  27.8938  28.0314
    28.0587  28.5862  28.6354  28.7304  28.9187  28.9888  29.1613  29.3885
    29.5144  29.6514  29.8416  30.0871  30.1498  31.0566  32.6202  34.5848
    36.1760  37.2927  38.1468  39.0004  41.0539  41.3859  41.5711  41.8296
    42.0795  42.5091  43.4117  44.0109  44.7856  45.4137  46.2816  46.7820
    49.6974  50.1698  51.1042  52.5378  52.6727  52.8192  53.5608  53.7950
    54.0202  54.3539  54.5656  54.9694  55.1571  55.8086  55.9285  56.2320
    56.5827  56.7313  57.2570  57.9532  58.3873  59.0308  59.2549  59.3342

          k = 0.4000 0.1667 0.4286 (  2652 PWs)   bands (ev):

   -61.2011 -61.1574 -61.1440 -61.0807 -61.0627 -61.0200 -21.4576 -20.9977
   -20.9446 -20.7946 -20.6696 -20.3013 -20.2118 -20.0532 -19.9854 -19.9226
   -19.9172 -19.8378 -19.8316 -19.8177 -19.7696 -19.7618 -19.7581 -19.7542
   -19.7465 -19.5863   7.6102   7.6315   7.6384   7.6542   7.6646   7.6674
    23.6960  25.2486  25.2679  25.6984  25.9937  26.1006  26.3063  26.4719
    26.5292  26.9336  27.1027  27.1458  27.4282  27.4557  27.6033  27.7635
    28.0403  28.3741  28.4652  28.6692  28.7854  28.9423  28.9864  29.0701
    29.2546  29.2958  29.6390  29.8399  30.0198  31.0803  33.6528  34.7372
    35.6831  36.4684  38.3387  39.4810  41.1847  41.4465  41.8859  42.0163
    42.1127  43.0846  43.4637  44.0180  44.0496  44.7807  45.5901  45.8022
    50.4438  51.0157  51.3550  52.5922  53.0655  53.1815  53.2857  53.7473
    54.1715  54.7631  54.9679  55.3738  55.6165  55.8944  56.0864  56.1629
    56.2865  57.1551  57.6778  57.7369  58.4607  58.7618  58.9759  59.1059

          k = 0.4000 0.3333 0.0000 (  2652 PWs)   bands (ev):

   -61.2297 -61.1704 -61.1567 -61.0713 -61.0502 -60.9957 -21.5946 -21.1345
   -20.9846 -20.8055 -20.6692 -20.1988 -20.1075 -20.0232 -20.0063 -19.9504
   -19.9000 -19.8752 -19.8274 -19.8101 -19.7712 -19.7585 -19.7519 -19.7482
   -19.7340 -19.4430   7.6042   7.6277   7.6371   7.6578   7.6692   7.6760
    23.1907  24.9587  25.0620  25.0884  25.6788  25.8626  26.0677  26.4179
    26.4378  27.0309  27.1057  27.3236  27.5751  27.8565  27.9555  27.9863
    28.2123  28.3573  28.4755  28.6723  28.8845  28.9345  29.0484  29.3769
    29.4179  29.6230  29.8631  30.2499  30.4627  31.5505  32.4410  34.3236
    35.5917  36.7705  38.8942  39.7004  41.1113  41.1336  41.5994  41.7964
    41.8520  42.6908  43.3735  44.4645  44.6831  45.0050  45.7916  47.5905
    50.1872  51.2819  51.4891  51.8192  52.0682  52.7053  52.8348  53.4299
    53.5838  54.4392  54.5034  55.0944  55.1896  55.2098  55.2825  56.0585
    56.3801  57.1510  57.1826  58.0738  58.6652  58.9224  59.4345  59.7059

          k = 0.4000 0.3333 0.1429 (  2654 PWs)   bands (ev):

   -61.2094 -61.1790 -61.1548 -61.0729 -61.0466 -61.0156 -21.4980 -21.1283
   -20.9778 -20.8313 -20.6915 -20.2100 -20.0924 -20.0256 -19.9984 -19.9211
   -19.9031 -19.8516 -19.8303 -19.8073 -19.7776 -19.7692 -19.7596 -19.7565
   -19.7414 -19.5476   7.6124   7.6306   7.6374   7.6549   7.6622   7.6690
    23.5584  25.0116  25.1886  25.2210  25.6866  25.8391  26.0671  26.4222
    26.5693  26.9221  27.0611  27.3038  27.4723  27.6795  27.7772  28.0003
    28.0624  28.5241  28.5683  28.6821  28.8923  28.9864  29.1474  29.3239
    29.4412  29.6054  29.6616  29.9540  30.1775  31.1944  32.8199  34.6745
    35.8091  36.9641  38.3413  39.3443  41.0154  41.4013  41.6973  41.9014
    42.0020  42.7204  43.3536  44.1512  44.5485  45.0668  46.0848  46.6028
    50.1017  50.5271  51.2012  52.6339  52.7021  52.8215  53.3021  53.6239
    54.1380  54.4492  54.6450  55.0268  55.2058  55.8262  55.9670  56.1407
    56.3858  56.7812  57.2860  58.0096  58.6531  58.9454  59.1370  59.2724

          k = 0.4000 0.3333 0.2857 (  2651 PWs)   bands (ev):

   -61.1868 -61.1714 -61.1543 -61.0689 -61.0468 -61.0258 -21.2162 -21.1065
   -20.9576 -20.8870 -20.7430 -20.2245 -20.0666 -20.0207 -19.9659 -19.9032
   -19.8872 -19.8447 -19.8277 -19.8163 -19.8012 -19.7846 -19.7826 -19.7722
   -19.7654 -19.7495   7.6292   7.6372   7.6422   7.6492   7.6510   7.6558
    24.5930  25.0455  25.5816  25.6471  25.7119  25.8199  26.0913  26.4526
    26.6028  26.8449  26.9332  27.1758  27.3847  27.4918  27.6674  27.7171
    28.0469  28.6118  28.6576  28.7149  28.7692  28.9647  29.0841  29.1322
    29.2410  29.4714  29.5386  29.6364  29.7227  30.1706  33.6915  35.4935
    36.3571  37.3366  37.4628  38.2203  41.5837  41.7561  41.9282  42.0694
    42.2314  42.8232  42.8955  43.4912  43.9502  45.1548  45.5271  46.2971
    49.5507  50.2549  51.0246  53.1595  53.4978  53.7425  54.0640  54.2457
    54.6807  54.8669  54.9562  55.2398  55.3710  55.5984  56.4134  56.7339
    56.9428  57.3493  57.5331  58.0516  58.3523  58.4725  58.5402  58.6974

          k = 0.4000 0.3333 0.4286 (  2646 PWs)   bands (ev):

   -61.1705 -61.1468 -61.1350 -61.0748 -61.0581 -61.0354 -21.0864 -20.9699
   -20.9303 -20.8362 -20.7237 -20.3196 -20.2344 -20.0536 -19.9690 -19.9304
   -19.8964 -19.8540 -19.8411 -19.8244 -19.7964 -19.7883 -19.7832 -19.7731
   -19.7521 -19.7401   7.6334   7.6403   7.6443   7.6496   7.6502   7.6518
    25.0595  25.7325  25.8446  25.8699  26.0277  26.1231  26.2902  26.4645
    26.6276  26.8683  26.9144  27.1193  27.2430  27.2647  27.4028  27.4387
    28.1119  28.4238  28.4425  28.5108  28.5669  28.7565  28.9661  29.0550
    29.0978  29.1939  29.3701  29.3943  29.4691  29.7416  34.8003  35.9618
    36.3571  37.1410  37.3841  37.9268  41.7804  41.8624  42.0718  42.1850
    42.3581  42.4435  42.9970  43.2839  43.6047  44.7757  45.1107  45.5929
    49.9624  50.7346  51.3019  53.1221  53.4162  54.0190  54.5195  54.7972
    54.8498  55.2687  55.2945  55.5224  55.6535  55.9307  56.3878  56.7105
    57.0565  57.1974  57.4141  57.7316  58.1980  58.3390  58.5888  59.0038

          k = 0.4000-0.5000 0.0000 (  2650 PWs)   bands (ev):

   -61.2235 -61.1489 -61.1177 -61.1101 -61.0660 -60.9940 -21.5845 -20.9993
   -20.9249 -20.7497 -20.5234 -20.4726 -20.1926 -20.0780 -19.9698 -19.9562
   -19.9448 -19.8575 -19.8410 -19.8229 -19.7535 -19.7522 -19.7466 -19.7388
   -19.7346 -19.4495   7.5990   7.6258   7.6375   7.6580   7.6750   7.6780
    23.2009  25.0285  25.0575  25.6958  26.1466  26.1746  26.3103  26.5905
    26.8036  26.8077  27.0276  27.3167  27.5576  27.5582  27.5962  27.8643
    27.9881  28.1721  28.5469  28.6933  28.7286  28.7905  28.7978  28.9840
    29.0646  29.3713  30.0105  30.2745  30.3670  31.5583  33.6712  33.6821
    35.5880  35.9222  38.9039  40.6625  41.0070  41.1281  41.7841  41.9334
    42.0179  43.1663  43.5304  43.9201  44.0235  44.1487  46.3670  46.5998
    50.9050  51.3897  51.9653  52.0371  52.5430  52.8134  53.1598  53.4690
    53.6372  53.6835  54.4719  54.6330  55.3606  55.8376  56.0945  56.3246
    56.4396  57.3987  57.7271  58.0455  58.7205  59.0930  59.1116  59.5706

          k = 0.4000-0.5000 0.1429 (  2650 PWs)   bands (ev):

   -61.2010 -61.1550 -61.1130 -61.1107 -61.0618 -61.0127 -21.4886 -20.9937
   -20.9278 -20.7668 -20.5278 -20.4920 -20.2087 -20.0583 -19.9742 -19.9305
   -19.9265 -19.8373 -19.8342 -19.8216 -19.7643 -19.7559 -19.7529 -19.7525
   -19.7404 -19.5460   7.6064   7.6293   7.6374   7.6553   7.6690   7.6726
    23.5681  25.1903  25.2173  25.7077  26.1475  26.1772  26.4396  26.6018
    26.7783  26.8551  26.9594  27.2484  27.3726  27.4374  27.4657  27.7449
    28.0113  28.1890  28.5116  28.6674  28.7305  28.8452  28.8993  29.0443
    29.1983  29.3255  29.7717  29.9132  30.0828  31.2096  34.0861  34.0886
    35.8442  36.0836  38.4986  39.8174  41.2280  41.2685  41.8626  42.0217
    42.1243  43.1574  43.6919  43.8700  44.1421  44.5227  45.4940  45.8901
    50.8760  50.9583  51.9744  51.9814  52.9309  53.0712  53.2374  53.7100
    54.1596  54.3827  55.1587  55.2024  55.7798  55.8620  55.9228  56.1426
    56.3830  57.3758  57.6835  57.9156  58.0209  58.8170  59.1392  59.3446

          k = 0.4000-0.5000 0.2857 (  2640 PWs)   bands (ev):

   -61.1680 -61.1488 -61.0982 -61.0980 -61.0483 -61.0287 -21.2044 -20.9746
   -20.9291 -20.8090 -20.5312 -20.5181 -20.2231 -19.9833 -19.9787 -19.9056
   -19.8927 -19.8390 -19.8212 -19.8172 -19.8010 -19.7921 -19.7731 -19.7684
   -19.7453 -19.7421   7.6278   7.6409   7.6430   7.6533   7.6548   7.6569
    24.6028  25.6529  25.6740  25.7369  26.1731  26.1867  26.6433  26.7001
    26.7276  26.8427  26.9341  26.9484  27.1001  27.1747  27.3949  27.4932
    28.2035  28.2291  28.4382  28.5418  28.6364  28.7221  28.9239  29.0690
    29.1262  29.3204  29.3775  29.4005  29.5746  30.1869  35.0208  35.0417
    36.5213  36.5361  37.8009  38.3375  41.6234  41.7084  42.0137  42.1648
    42.4748  42.8462  43.0729  43.2650  44.1057  44.3817  45.2174  45.4811
    49.8793  50.7399  52.1705  52.2148  53.2517  54.0818  54.3685  54.6618
    54.7768  55.2679  55.3161  55.4414  55.6122  55.7789  56.4288  56.6964
    56.8227  57.2243  57.7137  57.8604  57.9845  58.2795  58.4441  59.0260

          k = 0.4000-0.5000 0.4286 (  2640 PWs)   bands (ev):

   -61.1363 -61.1266 -61.1017 -61.0938 -61.0613 -61.0600 -20.9536 -20.9503
   -20.8581 -20.7682 -20.5435 -20.5429 -20.3241 -20.2368 -19.9241 -19.9108
   -19.8746 -19.8721 -19.8435 -19.8366 -19.7961 -19.7922 -19.7881 -19.7871
   -19.7348 -19.7321   7.6387   7.6415   7.6476   7.6479   7.6502   7.6513
    25.7543  26.0438  26.1849  26.1867  26.3221  26.3332  26.6393  26.6692
    26.6912  26.7018  26.9491  26.9579  26.9982  27.0159  27.1870  27.1998
    28.1793  28.1798  28.2509  28.2626  28.3977  28.4064  28.7352  28.9409
    29.0569  29.1252  29.2187  29.2536  29.3311  29.3415  36.0661  36.0693
    36.8868  36.9291  37.3601  37.4832  41.3897  41.3907  42.2101  42.2369
    42.2565  42.2818  43.2173  43.4264  44.0814  44.1166  44.7891  45.0038
    50.7333  51.1289  52.3221  52.3657  53.4149  53.8051  54.3585  54.4727
    55.2160  55.3203  55.5139  55.5426  56.0576  56.1321  56.6292  56.6487
    56.8899  57.1189  57.6174  57.7399  58.4136  58.4886  58.9258  58.9918

     the Fermi energy is    53.2873 ev

!    total energy              =   -2595.90046959 Ry
     Harris-Foulkes estimate   =   -2595.90051986 Ry
     estimated scf accuracy    <       0.00005504 Ry

     The total energy is the sum of the following terms:

     one-electron contribution =     -73.67301328 Ry
     hartree contribution      =     276.75616510 Ry
     xc contribution           =    -230.00886467 Ry
     ewald contribution        =   -2568.62030191 Ry
     smearing contrib. (-TS)   =      -0.35445483 Ry

     convergence has been achieved in   9 iterations

     Forces acting on atoms (Ry/au):

     atom    1 type  1   force =     0.00000000    0.00000000    0.00000000
     atom    2 type  1   force =     0.00000000    0.00000000    0.00000000
     atom    3 type  1   force =     0.00000000    0.00000000    0.00000000
     atom    4 type  1   force =     0.00000000    0.00000000    0.00000000
     atom    5 type  1   force =     0.00000000    0.00000000    0.00000000
     atom    6 type  1   force =     0.00000000    0.00000000    0.00000000
     atom    7 type  2   force =     0.00000000    0.00000000    0.00000000
     atom    8 type  2   force =     0.00000000    0.00000000    0.00000000

     Total force =     0.000000     Total SCF correction =     0.000000


     entering subroutine stress ...

          total   stress  (Ry/bohr**3)                   (kbar)     P= 5705.54
   0.03878549   0.00000000   0.00000000       5705.54      0.00      0.00
   0.00000000   0.03878549   0.00000000          0.00   5705.54      0.00
   0.00000000   0.00000000   0.03878549          0.00      0.00   5705.54


     BFGS Geometry Optimization

     number of scf cycles    =   1
     number of bfgs steps    =   0

     enthalpy new            =   -2595.9004695855 Ry

     new trust radius        =       0.5000000000 bohr
     new conv_thr            =       0.0001000000 Ry

     new unit-cell volume =    828.02266 a.u.^3 (   122.70030 Ang^3 )

CELL_PARAMETERS (alat=  8.53457320)
   1.100269143   0.000000000   0.000000000
   0.000000000   1.100269143   0.000000000
   0.000000000   0.000000000   1.100269143

ATOMIC_POSITIONS (crystal)
Cr       0.000000000   0.500000000   0.250000000
Cr       0.000000000   0.500000000   0.750000000
Cr       0.500000000   0.750000000   0.000000000
Cr       0.500000000   0.250000000   0.000000000
Cr       0.750000000   0.000000000   0.500000000
Cr       0.250000000   0.000000000   0.500000000
Si       0.500000000   0.500000000   0.500000000
Si       0.000000000   0.000000000   0.000000000



     Writing output data file Prototype-La-cP8-Cr3Si.save
     NEW-OLD atomic charge density approx. for the potential
     NEW k-points:
        k(    1) = (   0.0000000   0.0000000   0.0000000), wk =   0.0095238
        k(    2) = (   0.0000000   0.0000000   0.1298384), wk =   0.0190476
        k(    3) = (   0.0000000   0.0000000   0.2596767), wk =   0.0190476
        k(    4) = (   0.0000000   0.0000000   0.3895151), wk =   0.0190476
        k(    5) = (   0.0000000   0.1514781   0.0000000), wk =   0.0190476
        k(    6) = (   0.0000000   0.1514781   0.1298384), wk =   0.0380952
        k(    7) = (   0.0000000   0.1514781   0.2596767), wk =   0.0380952
        k(    8) = (   0.0000000   0.1514781   0.3895151), wk =   0.0380952
        k(    9) = (   0.0000000   0.3029562   0.0000000), wk =   0.0190476
        k(   10) = (   0.0000000   0.3029562   0.1298384), wk =   0.0380952
        k(   11) = (   0.0000000   0.3029562   0.2596767), wk =   0.0380952
        k(   12) = (   0.0000000   0.3029562   0.3895151), wk =   0.0380952
        k(   13) = (   0.0000000  -0.4544343   0.0000000), wk =   0.0095238
        k(   14) = (   0.0000000  -0.4544343   0.1298384), wk =   0.0190476
        k(   15) = (   0.0000000  -0.4544343   0.2596767), wk =   0.0190476
        k(   16) = (   0.0000000  -0.4544343   0.3895151), wk =   0.0190476
        k(   17) = (   0.1817737   0.0000000   0.0000000), wk =   0.0190476
        k(   18) = (   0.1817737   0.0000000   0.1298384), wk =   0.0380952
        k(   19) = (   0.1817737   0.0000000   0.2596767), wk =   0.0380952
        k(   20) = (   0.1817737   0.0000000   0.3895151), wk =   0.0380952
        k(   21) = (   0.1817737   0.1514781   0.0000000), wk =   0.0380952
        k(   22) = (   0.1817737   0.1514781   0.1298384), wk =   0.0761905
        k(   23) = (   0.1817737   0.1514781   0.2596767), wk =   0.0761905
        k(   24) = (   0.1817737   0.1514781   0.3895151), wk =   0.0761905
        k(   25) = (   0.1817737   0.3029562   0.0000000), wk =   0.0380952
        k(   26) = (   0.1817737   0.3029562   0.1298384), wk =   0.0761905
        k(   27) = (   0.1817737   0.3029562   0.2596767), wk =   0.0761905
        k(   28) = (   0.1817737   0.3029562   0.3895151), wk =   0.0761905
        k(   29) = (   0.1817737  -0.4544343   0.0000000), wk =   0.0190476
        k(   30) = (   0.1817737  -0.4544343   0.1298384), wk =   0.0380952
        k(   31) = (   0.1817737  -0.4544343   0.2596767), wk =   0.0380952
        k(   32) = (   0.1817737  -0.4544343   0.3895151), wk =   0.0380952
        k(   33) = (   0.3635474   0.0000000   0.0000000), wk =   0.0190476
        k(   34) = (   0.3635474   0.0000000   0.1298384), wk =   0.0380952
        k(   35) = (   0.3635474   0.0000000   0.2596767), wk =   0.0380952
        k(   36) = (   0.3635474   0.0000000   0.3895151), wk =   0.0380952
        k(   37) = (   0.3635474   0.1514781   0.0000000), wk =   0.0380952
        k(   38) = (   0.3635474   0.1514781   0.1298384), wk =   0.0761905
        k(   39) = (   0.3635474   0.1514781   0.2596767), wk =   0.0761905
        k(   40) = (   0.3635474   0.1514781   0.3895151), wk =   0.0761905
        k(   41) = (   0.3635474   0.3029562   0.0000000), wk =   0.0380952
        k(   42) = (   0.3635474   0.3029562   0.1298384), wk =   0.0761905
        k(   43) = (   0.3635474   0.3029562   0.2596767), wk =   0.0761905
        k(   44) = (   0.3635474   0.3029562   0.3895151), wk =   0.0761905
        k(   45) = (   0.3635474  -0.4544343   0.0000000), wk =   0.0190476
        k(   46) = (   0.3635474  -0.4544343   0.1298384), wk =   0.0380952
        k(   47) = (   0.3635474  -0.4544343   0.2596767), wk =   0.0380952
        k(   48) = (   0.3635474  -0.4544343   0.3895151), wk =   0.0380952

     total cpu time spent up to now is     1243.8 secs

     Self-consistent Calculation

     iteration #  1     ecut=    40.00 Ry     beta=0.70
     CG style diagonalization
     c_bands:  5 eigenvalues not converged
     c_bands:  1 eigenvalues not converged
     c_bands:  1 eigenvalues not converged
     c_bands:  1 eigenvalues not converged
     c_bands:  1 eigenvalues not converged
     c_bands:  1 eigenvalues not converged
     c_bands:  1 eigenvalues not converged
     c_bands:  1 eigenvalues not converged
     c_bands:  1 eigenvalues not converged
     c_bands:  2 eigenvalues not converged
     c_bands:  2 eigenvalues not converged
     c_bands:  1 eigenvalues not converged
     c_bands:  1 eigenvalues not converged
     c_bands:  1 eigenvalues not converged
     c_bands:  1 eigenvalues not converged
     c_bands:  1 eigenvalues not converged
     c_bands:  1 eigenvalues not converged
     c_bands:  1 eigenvalues not converged
     c_bands:  1 eigenvalues not converged
     c_bands:  2 eigenvalues not converged
     c_bands:  1 eigenvalues not converged
     c_bands:  1 eigenvalues not converged
     c_bands:  1 eigenvalues not converged
     c_bands:  1 eigenvalues not converged
     c_bands:  1 eigenvalues not converged
     ethr =  1.00E-06,  avg # of iterations = 22.3

 %%%%%%%%%%%%%%%%%%%%%%%%%%%%%%%%%%%%%%%%%%%%%%%%%%%%%%%%%%%%%%%%%%%%%%%%%%%%%%
     Error in routine create_directory: (29):
     ./cP8-Cr3Si-out/Prototype-La-cP8-Cr3Si.save non existent or non writable
 %%%%%%%%%%%%%%%%%%%%%%%%%%%%%%%%%%%%%%%%%%%%%%%%%%%%%%%%%%%%%%%%%%%%%%%%%%%%%%

     stopping ...

 %%%%%%%%%%%%%%%%%%%%%%%%%%%%%%%%%%%%%%%%%%%%%%%%%%%%%%%%%%%%%%%%%%%%%%%%%%%%%%
     Error in routine create_directory: (29):
     ./cP8-Cr3Si-out/Prototype-La-cP8-Cr3Si.save non existent or non writable
 %%%%%%%%%%%%%%%%%%%%%%%%%%%%%%%%%%%%%%%%%%%%%%%%%%%%%%%%%%%%%%%%%%%%%%%%%%%%%%

     stopping ...

 %%%%%%%%%%%%%%%%%%%%%%%%%%%%%%%%%%%%%%%%%%%%%%%%%%%%%%%%%%%%%%%%%%%%%%%%%%%%%%
     Error in routine create_directory: (29):
     ./cP8-Cr3Si-out/Prototype-La-cP8-Cr3Si.save non existent or non writable
 %%%%%%%%%%%%%%%%%%%%%%%%%%%%%%%%%%%%%%%%%%%%%%%%%%%%%%%%%%%%%%%%%%%%%%%%%%%%%%

     stopping ...

 %%%%%%%%%%%%%%%%%%%%%%%%%%%%%%%%%%%%%%%%%%%%%%%%%%%%%%%%%%%%%%%%%%%%%%%%%%%%%%
     Error in routine create_directory: (29):
     ./cP8-Cr3Si-out/Prototype-La-cP8-Cr3Si.save non existent or non writable
 %%%%%%%%%%%%%%%%%%%%%%%%%%%%%%%%%%%%%%%%%%%%%%%%%%%%%%%%%%%%%%%%%%%%%%%%%%%%%%

     stopping ...
