
     Program PWSCF v.5.0.2 starts on 22Mar2018 at  0: 3: 8 

     This program is part of the open-source Quantum ESPRESSO suite
     for quantum simulation of materials; please cite
         "P. Giannozzi et al., J. Phys.:Condens. Matter 21 395502 (2009);
          URL http://www.quantum-espresso.org", 
     in publications or presentations arising from this work. More details at
     http://www.quantum-espresso.org/quote.php

     Parallel version (MPI), running on     4 processors
     R & G space division:  proc/nbgrp/npool/nimage =       4

     Current dimensions of program PWSCF are:
     Max number of different atomic species (ntypx) = 10
     Max number of k-points (npk) =  40000
     Max angular momentum in pseudopotentials (lmaxx) =  3
     Waiting for input...
     Reading input from standard input

     Subspace diagonalization in iterative solution of the eigenvalue problem:
     a serial algorithm will be used

 
     Parallelization info
     --------------------
     sticks:   dense  smooth     PW     G-vecs:    dense   smooth      PW
     Min         356     356    106                 9670     9670    1578
     Max         358     358    108                 9671     9671    1579
     Sum        1429    1429    427                38681    38681    6313
 


     bravais-lattice index     =            0
     lattice parameter (alat)  =      13.3930  a.u.
     unit-cell volume          =    1134.0956 (a.u.)^3
     number of atoms/cell      =            4
     number of atomic types    =            2
     number of electrons       =        84.00
     number of Kohn-Sham states=           50
     kinetic-energy cutoff     =      40.0000  Ry
     charge density cutoff     =     160.0000  Ry
     convergence threshold     =      1.0E-04
     mixing beta               =       0.7000
     number of iterations used =            8  plain     mixing
     Exchange-correlation      = SLA-PZ-NOGX-NOGC ( 1 1 0 0 0)
     EXX-fraction              =        0.00
     nstep                     =           50


     celldm(1)=  13.392972  celldm(2)=   0.000000  celldm(3)=   0.000000
     celldm(4)=   0.000000  celldm(5)=   0.000000  celldm(6)=   0.000000

     crystal axes: (cart. coord. in units of alat)
               a(1) = (   1.000000   0.000000   0.000000 )  
               a(2) = (  -0.776311   0.630350   0.000000 )  
               a(3) = (   0.000000   0.000000   0.748922 )  

     reciprocal axes: (cart. coord. in units 2 pi/alat)
               b(1) = (  1.000000  1.231554  0.000000 )  
               b(2) = (  0.000000  1.586419  0.000000 )  
               b(3) = (  0.000000  0.000000  1.335252 )  


     PseudoPot. # 1 for Lu read from file:
     /home/cwx6513/pp.La/La.UPF
     MD5 check sum: 4fc038260c66a0bf25fb4835376efb80
     Pseudo is Norm-conserving, Zval = 25.0
     Generated in analytical, separable form
     Using radial grid of 1271 points,  6 beta functions with: 
                l(1) =   0
                l(2) =   0
                l(3) =   1
                l(4) =   1
                l(5) =   2
                l(6) =   3

     PseudoPot. # 2 for Eu read from file:
     /home/cwx6513/pp.La/Eu.UPF
     MD5 check sum: 5efdbbfc50c6a10138933a6429836ad2
     Pseudo is Norm-conserving, Zval = 17.0
     Generated in analytical, separable form
     Using radial grid of 1261 points,  6 beta functions with: 
                l(1) =   0
                l(2) =   0
                l(3) =   1
                l(4) =   1
                l(5) =   2
                l(6) =   3

     atomic species   valence    mass     pseudopotential
        Tl            25.00   204.38300     Lu( 1.00)
        I             17.00   126.90400     Eu( 1.00)

      2 Sym. Ops., with inversion, found
          (note:  2 additional sym.ops. were found but ignored
           their fractional translations are incommensurate with FFT grid)


   Cartesian axes

     site n.     atom                  positions (alat units)
         1           Tl  tau(   1) = (  -0.0906317   0.3870269   0.5616917  )
         2           Tl  tau(   2) = (   0.3143210   0.2433234   0.1872306  )
         3           I   tau(   3) = (  -0.5408004   0.5467760   0.5616917  )
         4           I   tau(   4) = (   0.7644896   0.0835744   0.1872306  )

     number of k points=   106  gaussian smearing, width (Ry)=  0.1000

     Number of k-points >= 100: set verbosity='high' to print them.

     Dense  grid:    38681 G-vectors     FFT dimensions: (  54,  54,  45)

     Largest allocated arrays     est. size (Mb)     dimensions
        Kohn-Sham Wavefunctions         0.94 Mb     (   1230,   50)
        NL pseudopotentials             1.50 Mb     (   1230,   80)
        Each V/rho on FFT grid          0.53 Mb     (  34992)
        Each G-vector array             0.07 Mb     (   9671)
        G-vector shells                 0.07 Mb     (   9671)
     Largest temporary arrays     est. size (Mb)     dimensions
        Each subspace H/S matrix        0.04 Mb     (  50,  50)
        Each <psi_i|beta_j> matrix      0.06 Mb     (     80,   50)
        Arrays for rho mixing           4.27 Mb     (  34992,   8)

     Initial potential from superposition of free atoms

     Starting from uniform charge
     Starting wfc are    0 randomized atomic wfcs

     total cpu time spent up to now is        9.3 secs

     Self-consistent Calculation

     iteration #  1     ecut=    40.00 Ry     beta=0.70
     CG style diagonalization
     ethr =  1.00E-02,  avg # of iterations = 21.8

     total cpu time spent up to now is      289.9 secs

     total energy              =    -584.75871061 Ry
     Harris-Foulkes estimate   =   -1914.80133133 Ry
     estimated scf accuracy    <    1580.15501016 Ry

     iteration #  2     ecut=    40.00 Ry     beta=0.70
     CG style diagonalization
     c_bands:  5 eigenvalues not converged
     c_bands:  5 eigenvalues not converged
     c_bands:  5 eigenvalues not converged
     c_bands:  4 eigenvalues not converged
     c_bands:  5 eigenvalues not converged
     ethr =  1.00E-02,  avg # of iterations = 17.5

     total cpu time spent up to now is      492.5 secs

     total energy              =    -911.60996825 Ry
     Harris-Foulkes estimate   =   -1991.61944989 Ry
     estimated scf accuracy    <    2120.79096071 Ry

     iteration #  3     ecut=    40.00 Ry     beta=0.70
     CG style diagonalization
     ethr =  1.00E-02,  avg # of iterations = 11.5

     total cpu time spent up to now is      627.3 secs

     total energy              =   -1243.55097618 Ry
     Harris-Foulkes estimate   =   -1272.92202997 Ry
     estimated scf accuracy    <      45.88642931 Ry

     iteration #  4     ecut=    40.00 Ry     beta=0.70
     CG style diagonalization
     ethr =  1.00E-02,  avg # of iterations =  5.8

     total cpu time spent up to now is      695.9 secs

     total energy              =   -1256.13610860 Ry
     Harris-Foulkes estimate   =   -1262.64479868 Ry
     estimated scf accuracy    <      17.12016287 Ry

     iteration #  5     ecut=    40.00 Ry     beta=0.70
     CG style diagonalization
     ethr =  1.00E-02,  avg # of iterations =  3.4

     total cpu time spent up to now is      736.3 secs

     total energy              =   -1256.24645858 Ry
     Harris-Foulkes estimate   =   -1258.01238052 Ry
     estimated scf accuracy    <       2.77990987 Ry

     iteration #  6     ecut=    40.00 Ry     beta=0.70
     CG style diagonalization
     ethr =  3.31E-03,  avg # of iterations =  3.6

     total cpu time spent up to now is      777.6 secs

     total energy              =   -1257.12496917 Ry
     Harris-Foulkes estimate   =   -1258.08561129 Ry
     estimated scf accuracy    <       2.83075397 Ry

     iteration #  7     ecut=    40.00 Ry     beta=0.70
     CG style diagonalization
     ethr =  3.31E-03,  avg # of iterations =  3.2

     total cpu time spent up to now is      820.7 secs

     total energy              =   -1257.39163038 Ry
     Harris-Foulkes estimate   =   -1257.46681702 Ry
     estimated scf accuracy    <       0.20884722 Ry

     iteration #  8     ecut=    40.00 Ry     beta=0.70
     CG style diagonalization
     ethr =  2.49E-04,  avg # of iterations =  3.6

     total cpu time spent up to now is      862.7 secs

     total energy              =   -1257.44821068 Ry
     Harris-Foulkes estimate   =   -1257.44898279 Ry
     estimated scf accuracy    <       0.00950355 Ry

     iteration #  9     ecut=    40.00 Ry     beta=0.70
     CG style diagonalization
     c_bands:  1 eigenvalues not converged
     c_bands:  1 eigenvalues not converged
     c_bands:  1 eigenvalues not converged
     c_bands:  1 eigenvalues not converged
     c_bands:  1 eigenvalues not converged
     c_bands:  1 eigenvalues not converged
     ethr =  1.13E-05,  avg # of iterations =  4.0

     total cpu time spent up to now is      914.4 secs

     total energy              =   -1257.44456010 Ry
     Harris-Foulkes estimate   =   -1257.45046133 Ry
     estimated scf accuracy    <       0.01751099 Ry

     iteration # 10     ecut=    40.00 Ry     beta=0.70
     CG style diagonalization
     ethr =  1.13E-05,  avg # of iterations =  3.2

     total cpu time spent up to now is      952.1 secs

     total energy              =   -1257.44708746 Ry
     Harris-Foulkes estimate   =   -1257.44720464 Ry
     estimated scf accuracy    <       0.00024608 Ry

     iteration # 11     ecut=    40.00 Ry     beta=0.70
     CG style diagonalization
     ethr =  2.93E-07,  avg # of iterations =  4.4

     total cpu time spent up to now is     1003.0 secs

     total energy              =   -1257.44716111 Ry
     Harris-Foulkes estimate   =   -1257.44727882 Ry
     estimated scf accuracy    <       0.00034453 Ry

     iteration # 12     ecut=    40.00 Ry     beta=0.70
     CG style diagonalization
     ethr =  2.93E-07,  avg # of iterations =  3.3

     total cpu time spent up to now is     1040.6 secs

     End of self-consistent calculation

     Number of k-points >= 100: set verbosity='high' to print the bands.

     the Fermi energy is    10.2907 ev

!    total energy              =   -1257.44721013 Ry
     Harris-Foulkes estimate   =   -1257.44721143 Ry
     estimated scf accuracy    <       0.00000165 Ry

     The total energy is the sum of the following terms:

     one-electron contribution =    -722.02580714 Ry
     hartree contribution      =     350.02039585 Ry
     xc contribution           =    -102.24218113 Ry
     ewald contribution        =    -782.84676394 Ry
     smearing contrib. (-TS)   =      -0.35285377 Ry

     convergence has been achieved in  12 iterations

     Forces acting on atoms (Ry/au):

     atom    1 type  1   force =    -0.03408367    0.01211425   -0.00071824
     atom    2 type  1   force =     0.03408367   -0.01211425    0.00071824
     atom    3 type  2   force =     0.00221240   -0.00073349   -0.00068274
     atom    4 type  2   force =    -0.00221240    0.00073349    0.00068274

     Total force =     0.051281     Total SCF correction =     0.000000


     entering subroutine stress ...

          total   stress  (Ry/bohr**3)                   (kbar)     P= -560.70
  -0.00374607  -0.00003255   0.00000000       -551.07     -4.79      0.00
  -0.00003255  -0.00382602   0.00000002         -4.79   -562.83      0.00
   0.00000000   0.00000002  -0.00386251          0.00      0.00   -568.20


     BFGS Geometry Optimization

     number of scf cycles    =   1
     number of bfgs steps    =   0

     enthalpy new            =   -1257.4472101256 Ry

     new trust radius        =       0.5000000000 bohr
     new conv_thr            =       0.0001000000 Ry

     new unit-cell volume =    902.66729 a.u.^3 (   133.76149 Ang^3 )

CELL_PARAMETERS (alat= 13.39297219)
   0.928001956  -0.000625605   0.000000081
  -0.720812245   0.584483386   0.000000142
   0.000000061   0.000000243   0.693325154

ATOMIC_POSITIONS (crystal)
Tl       0.384912927   0.615090171   0.749944950
Tl       0.615087073   0.384909829   0.250055050
I        0.132659143   0.867349206   0.749947671
I        0.867340857   0.132650794   0.250052329



     Writing output data file Prototype-La-oS8-TlI.save
     NEW-OLD atomic charge density approx. for the potential
     NEW k-points: (use verbosity='high' to print them)

     total cpu time spent up to now is     1048.8 secs

     Self-consistent Calculation

     iteration #  1     ecut=    40.00 Ry     beta=0.70
     CG style diagonalization
     c_bands:  4 eigenvalues not converged
     c_bands:  4 eigenvalues not converged
     c_bands:  1 eigenvalues not converged
     c_bands:  4 eigenvalues not converged
     c_bands:  1 eigenvalues not converged
     c_bands:  1 eigenvalues not converged
     c_bands:  1 eigenvalues not converged
     c_bands:  5 eigenvalues not converged
     c_bands:  1 eigenvalues not converged
     c_bands:  1 eigenvalues not converged
     c_bands:  1 eigenvalues not converged
     ethr =  1.00E-06,  avg # of iterations = 20.7

     total cpu time spent up to now is     1295.6 secs

     total energy              =   -1249.79518310 Ry
     Harris-Foulkes estimate   =   -1266.91816530 Ry
     estimated scf accuracy    <      20.96883322 Ry

     iteration #  2     ecut=    40.00 Ry     beta=0.70
     CG style diagonalization
     ethr =  1.00E-02,  avg # of iterations =  4.8

     total cpu time spent up to now is     1360.5 secs

     total energy              =   -1255.40966432 Ry
     Harris-Foulkes estimate   =   -1261.64950039 Ry
     estimated scf accuracy    <      10.50210634 Ry

     iteration #  3     ecut=    40.00 Ry     beta=0.70
     CG style diagonalization
     ethr =  1.00E-02,  avg # of iterations =  3.6

     total cpu time spent up to now is     1406.8 secs

     total energy              =   -1257.75323710 Ry
     Harris-Foulkes estimate   =   -1258.66660759 Ry
     estimated scf accuracy    <       1.85690028 Ry

     iteration #  4     ecut=    40.00 Ry     beta=0.70
     CG style diagonalization
     ethr =  2.21E-03,  avg # of iterations =  3.4

     total cpu time spent up to now is     1452.5 secs

     total energy              =   -1258.20155870 Ry
     Harris-Foulkes estimate   =   -1258.21727257 Ry
     estimated scf accuracy    <       0.02832993 Ry

     iteration #  5     ecut=    40.00 Ry     beta=0.70
     CG style diagonalization
     c_bands:  1 eigenvalues not converged
     c_bands:  1 eigenvalues not converged
     c_bands:  1 eigenvalues not converged
     ethr =  3.37E-05,  avg # of iterations =  4.7

     total cpu time spent up to now is     1510.9 secs

     total energy              =   -1258.22141099 Ry
     Harris-Foulkes estimate   =   -1258.22543339 Ry
     estimated scf accuracy    <       0.00742333 Ry

     iteration #  6     ecut=    40.00 Ry     beta=0.70
     CG style diagonalization
     ethr =  8.84E-06,  avg # of iterations =  3.7

     total cpu time spent up to now is     1557.9 secs

     total energy              =   -1258.22240520 Ry
     Harris-Foulkes estimate   =   -1258.22295468 Ry
     estimated scf accuracy    <       0.00135545 Ry

     iteration #  7     ecut=    40.00 Ry     beta=0.70
     CG style diagonalization
     ethr =  1.61E-06,  avg # of iterations =  3.7

     total cpu time spent up to now is     1606.4 secs

     total energy              =   -1258.22254745 Ry
     Harris-Foulkes estimate   =   -1258.22272146 Ry
     estimated scf accuracy    <       0.00028039 Ry

     iteration #  8     ecut=    40.00 Ry     beta=0.70
     CG style diagonalization
     ethr =  3.34E-07,  avg # of iterations =  4.2

     total cpu time spent up to now is     1661.7 secs

     End of self-consistent calculation

     Number of k-points >= 100: set verbosity='high' to print the bands.

     the Fermi energy is    14.4510 ev

!    total energy              =   -1258.22264205 Ry
     Harris-Foulkes estimate   =   -1258.22268244 Ry
     estimated scf accuracy    <       0.00004646 Ry

     The total energy is the sum of the following terms:

     one-electron contribution =    -622.06405223 Ry
     hartree contribution      =     311.76290278 Ry
     xc contribution           =    -102.84909451 Ry
     ewald contribution        =    -844.79559805 Ry
     smearing contrib. (-TS)   =      -0.27680003 Ry

     convergence has been achieved in   8 iterations

     Forces acting on atoms (Ry/au):

     atom    1 type  1   force =    -0.03079953    0.01074951    0.00888641
     atom    2 type  1   force =     0.03079953   -0.01074951   -0.00888641
     atom    3 type  2   force =     0.01923133   -0.00683175    0.00397689
     atom    4 type  2   force =    -0.01923133    0.00683175   -0.00397689

     Total force =     0.056133     Total SCF correction =     0.000000


     entering subroutine stress ...

          total   stress  (Ry/bohr**3)                   (kbar)     P= -403.24
  -0.00264866  -0.00006024  -0.00000018       -389.63     -8.86     -0.03
  -0.00006024  -0.00279666   0.00000009         -8.86   -411.40      0.01
  -0.00000018   0.00000009  -0.00277822         -0.03      0.01   -408.69


     number of scf cycles    =   2
     number of bfgs steps    =   1

     enthalpy old            =   -1257.4472101256 Ry
     enthalpy new            =   -1258.2226420507 Ry

     CASE: enthalpy_new < enthalpy_old

     small trust_radius: resetting bfgs history

     new trust radius        =       0.4202182697 bohr
     new conv_thr            =       0.0000307995 Ry

     new unit-cell volume =    729.51090 a.u.^3 (   108.10236 Ang^3 )

CELL_PARAMETERS (alat= 13.39297219)
   0.866553796  -0.001979534  -0.000004089
  -0.673962827   0.544703909   0.000004687
  -0.000003054   0.000001794   0.645169929

ATOMIC_POSITIONS (crystal)
Tl       0.383500282   0.616461876   0.750901951
Tl       0.616499718   0.383538124   0.249098049
I        0.133529313   0.866477402   0.750375952
I        0.866470687   0.133522598   0.249624048



     Writing output data file Prototype-La-oS8-TlI.save
     NEW-OLD atomic charge density approx. for the potential
     NEW k-points: (use verbosity='high' to print them)

     total cpu time spent up to now is     1669.3 secs

     Self-consistent Calculation

     iteration #  1     ecut=    40.00 Ry     beta=0.70
     CG style diagonalization
     c_bands:  4 eigenvalues not converged
     c_bands:  4 eigenvalues not converged
     c_bands:  3 eigenvalues not converged
     c_bands:  1 eigenvalues not converged
     c_bands:  1 eigenvalues not converged
     c_bands:  1 eigenvalues not converged
     c_bands:  1 eigenvalues not converged
     c_bands:  1 eigenvalues not converged
     c_bands:  1 eigenvalues not converged
     c_bands:  1 eigenvalues not converged
     c_bands:  2 eigenvalues not converged
     c_bands:  1 eigenvalues not converged
     ethr =  1.00E-06,  avg # of iterations = 22.5

     total cpu time spent up to now is     1936.0 secs

     total energy              =   -1250.38197775 Ry
     Harris-Foulkes estimate   =   -1266.36377859 Ry
     estimated scf accuracy    <      19.49690629 Ry

     iteration #  2     ecut=    40.00 Ry     beta=0.70
     CG style diagonalization
     ethr =  1.00E-02,  avg # of iterations =  5.1

     total cpu time spent up to now is     1998.4 secs

     total energy              =   -1253.94573438 Ry
     Harris-Foulkes estimate   =   -1263.17482728 Ry
     estimated scf accuracy    <      16.73935934 Ry

     iteration #  3     ecut=    40.00 Ry     beta=0.70
     CG style diagonalization
     ethr =  1.00E-02,  avg # of iterations =  4.0

     total cpu time spent up to now is     2047.3 secs

     total energy              =   -1257.90593689 Ry
     Harris-Foulkes estimate   =   -1259.12340971 Ry
     estimated scf accuracy    <       2.65936165 Ry

     iteration #  4     ecut=    40.00 Ry     beta=0.70
     CG style diagonalization
     ethr =  3.17E-03,  avg # of iterations =  3.5

     total cpu time spent up to now is     2089.9 secs

     total energy              =   -1258.52387395 Ry
     Harris-Foulkes estimate   =   -1258.56449676 Ry
     estimated scf accuracy    <       0.07603736 Ry

     iteration #  5     ecut=    40.00 Ry     beta=0.70
     CG style diagonalization
     c_bands:  1 eigenvalues not converged
     ethr =  9.05E-05,  avg # of iterations =  4.9

     total cpu time spent up to now is     2149.1 secs

     total energy              =   -1258.56658288 Ry
     Harris-Foulkes estimate   =   -1258.58519856 Ry
     estimated scf accuracy    <       0.03840236 Ry

     iteration #  6     ecut=    40.00 Ry     beta=0.70
     CG style diagonalization
     c_bands:  1 eigenvalues not converged
     ethr =  4.57E-05,  avg # of iterations =  3.4

     total cpu time spent up to now is     2191.8 secs

     total energy              =   -1258.57517110 Ry
     Harris-Foulkes estimate   =   -1258.57686031 Ry
     estimated scf accuracy    <       0.00302014 Ry

     iteration #  7     ecut=    40.00 Ry     beta=0.70
     CG style diagonalization
     c_bands:  1 eigenvalues not converged
     c_bands:  1 eigenvalues not converged
     c_bands:  1 eigenvalues not converged
     c_bands:  1 eigenvalues not converged
     c_bands:  1 eigenvalues not converged
     c_bands:  1 eigenvalues not converged
     c_bands:  1 eigenvalues not converged
     c_bands:  1 eigenvalues not converged
     ethr =  3.60E-06,  avg # of iterations =  5.3

     total cpu time spent up to now is     2260.4 secs

     total energy              =   -1258.57665893 Ry
     Harris-Foulkes estimate   =   -1258.57694975 Ry
     estimated scf accuracy    <       0.00052697 Ry

     iteration #  8     ecut=    40.00 Ry     beta=0.70
     CG style diagonalization
     c_bands:  1 eigenvalues not converged
     c_bands:  1 eigenvalues not converged
     c_bands:  1 eigenvalues not converged
     c_bands:  1 eigenvalues not converged
     ethr =  6.27E-07,  avg # of iterations =  3.9

     total cpu time spent up to now is     2309.5 secs

     total energy              =   -1258.57684397 Ry
     Harris-Foulkes estimate   =   -1258.57687293 Ry
     estimated scf accuracy    <       0.00005599 Ry

     iteration #  9     ecut=    40.00 Ry     beta=0.70
     CG style diagonalization
     c_bands:  1 eigenvalues not converged
     ethr =  6.67E-08,  avg # of iterations =  4.5

     total cpu time spent up to now is     2363.0 secs

     End of self-consistent calculation

     Number of k-points >= 100: set verbosity='high' to print the bands.

     the Fermi energy is    19.2849 ev

!    total energy              =   -1258.57687155 Ry
     Harris-Foulkes estimate   =   -1258.57687688 Ry
     estimated scf accuracy    <       0.00000624 Ry

     The total energy is the sum of the following terms:

     one-electron contribution =    -524.56438661 Ry
     hartree contribution      =     276.74518599 Ry
     xc contribution           =    -103.64113810 Ry
     ewald contribution        =    -906.91170620 Ry
     smearing contrib. (-TS)   =      -0.20482662 Ry

     convergence has been achieved in   9 iterations

     Forces acting on atoms (Ry/au):

     atom    1 type  1   force =    -0.02968027    0.01059803    0.00457544
     atom    2 type  1   force =     0.02968027   -0.01059803   -0.00457544
     atom    3 type  2   force =    -0.03809521    0.01385879   -0.00368911
     atom    4 type  2   force =     0.03809521   -0.01385879    0.00368911

     Total force =     0.073090     Total SCF correction =     0.000000


     entering subroutine stress ...

          total   stress  (Ry/bohr**3)                   (kbar)     P= -168.06
  -0.00099581  -0.00011465   0.00000117       -146.49    -16.87      0.17
  -0.00011465  -0.00127780  -0.00000056        -16.87   -187.97     -0.08
   0.00000117  -0.00000056  -0.00115369          0.17     -0.08   -169.71


     number of scf cycles    =   3
     number of bfgs steps    =   2

     enthalpy old            =   -1258.2226420507 Ry
     enthalpy new            =   -1258.5768715463 Ry

     CASE: enthalpy_new < enthalpy_old

     Message from routine bfgs:
     history already reset at previous step: stopping
     small trust_radius: resetting bfgs history

     new trust radius        =       0.1732572449 bohr
     new conv_thr            =       0.0000380952 Ry

     new unit-cell volume =    668.75810 a.u.^3 (    99.09972 Ang^3 )

CELL_PARAMETERS (alat= 13.39297219)
   0.844986401  -0.004399983   0.000021362
  -0.658745569   0.529234969  -0.000022769
   0.000015857  -0.000007304   0.626561793

ATOMIC_POSITIONS (crystal)
Tl       0.382068726   0.617909412   0.751431451
Tl       0.617931274   0.382090588   0.248568549
I        0.131719251   0.868370537   0.749948983
I        0.868280749   0.131629463   0.250051017



     Writing output data file Prototype-La-oS8-TlI.save
     NEW-OLD atomic charge density approx. for the potential
     NEW k-points: (use verbosity='high' to print them)

     total cpu time spent up to now is     2370.2 secs

     Self-consistent Calculation

     iteration #  1     ecut=    40.00 Ry     beta=0.70
     CG style diagonalization
     c_bands:  1 eigenvalues not converged
     c_bands:  2 eigenvalues not converged
     c_bands:  1 eigenvalues not converged
     c_bands:  4 eigenvalues not converged
     c_bands:  3 eigenvalues not converged
     c_bands:  5 eigenvalues not converged
     c_bands:  5 eigenvalues not converged
     c_bands:  3 eigenvalues not converged
     c_bands:  5 eigenvalues not converged
     c_bands:  5 eigenvalues not converged
     c_bands:  3 eigenvalues not converged
     c_bands:  2 eigenvalues not converged
     c_bands:  1 eigenvalues not converged
     c_bands:  4 eigenvalues not converged
     c_bands:  4 eigenvalues not converged
     c_bands:  5 eigenvalues not converged
     c_bands:  1 eigenvalues not converged
     c_bands:  1 eigenvalues not converged
     c_bands:  4 eigenvalues not converged
     c_bands:  4 eigenvalues not converged
     c_bands:  5 eigenvalues not converged
     c_bands:  3 eigenvalues not converged
     c_bands:  5 eigenvalues not converged
     c_bands:  5 eigenvalues not converged
     c_bands:  1 eigenvalues not converged
     c_bands:  5 eigenvalues not converged
     c_bands:  3 eigenvalues not converged
     c_bands:  4 eigenvalues not converged
     c_bands:  1 eigenvalues not converged
     c_bands:  3 eigenvalues not converged
     c_bands:  4 eigenvalues not converged
     c_bands:  4 eigenvalues not converged
     c_bands:  5 eigenvalues not converged
     c_bands:  5 eigenvalues not converged
     c_bands:  2 eigenvalues not converged
     c_bands:  5 eigenvalues not converged
     c_bands:  4 eigenvalues not converged
     c_bands:  5 eigenvalues not converged
     c_bands:  5 eigenvalues not converged
     c_bands:  3 eigenvalues not converged
     c_bands:  4 eigenvalues not converged
     c_bands:  3 eigenvalues not converged
     c_bands:  3 eigenvalues not converged
     c_bands:  3 eigenvalues not converged
     c_bands:  3 eigenvalues not converged
     c_bands:  3 eigenvalues not converged
     c_bands:  3 eigenvalues not converged
     c_bands:  5 eigenvalues not converged
     c_bands:  5 eigenvalues not converged
     c_bands:  2 eigenvalues not converged
     c_bands:  4 eigenvalues not converged
     c_bands:  3 eigenvalues not converged
     c_bands:  4 eigenvalues not converged
     c_bands:  2 eigenvalues not converged
     c_bands:  4 eigenvalues not converged
     c_bands:  4 eigenvalues not converged
     c_bands:  3 eigenvalues not converged
     c_bands:  5 eigenvalues not converged
     c_bands:  5 eigenvalues not converged
     c_bands:  4 eigenvalues not converged
     c_bands:  5 eigenvalues not converged
     c_bands:  5 eigenvalues not converged
     c_bands:  5 eigenvalues not converged
     c_bands:  4 eigenvalues not converged
     c_bands:  2 eigenvalues not converged
     ethr =  1.00E-06,  avg # of iterations = 16.1

     total cpu time spent up to now is     2544.2 secs

     total energy              =   -1257.28763934 Ry
     Harris-Foulkes estimate   =   -1260.13140687 Ry
     estimated scf accuracy    <       3.52995617 Ry

     iteration #  2     ecut=    40.00 Ry     beta=0.70
     CG style diagonalization
     ethr =  4.20E-03,  avg # of iterations =  4.0

     total cpu time spent up to now is     2590.0 secs

     total energy              =   -1258.37846898 Ry
     Harris-Foulkes estimate   =   -1258.93946030 Ry
     estimated scf accuracy    <       0.87794921 Ry

     iteration #  3     ecut=    40.00 Ry     beta=0.70
     CG style diagonalization
     ethr =  1.05E-03,  avg # of iterations =  3.6

     total cpu time spent up to now is     2631.9 secs

     total energy              =   -1258.58625881 Ry
     Harris-Foulkes estimate   =   -1258.64904963 Ry
     estimated scf accuracy    <       0.13160314 Ry

     iteration #  4     ecut=    40.00 Ry     beta=0.70
     CG style diagonalization
     ethr =  1.57E-04,  avg # of iterations =  3.9

     total cpu time spent up to now is     2675.7 secs

     total energy              =   -1258.61966713 Ry
     Harris-Foulkes estimate   =   -1258.62444928 Ry
     estimated scf accuracy    <       0.00795591 Ry

     iteration #  5     ecut=    40.00 Ry     beta=0.70
     CG style diagonalization
     c_bands:  1 eigenvalues not converged
     c_bands:  1 eigenvalues not converged
     c_bands:  2 eigenvalues not converged
     c_bands:  1 eigenvalues not converged
     c_bands:  1 eigenvalues not converged
     c_bands:  1 eigenvalues not converged
     c_bands:  2 eigenvalues not converged
     ethr =  9.47E-06,  avg # of iterations =  5.5

     total cpu time spent up to now is     2737.5 secs

     total energy              =   -1258.62353297 Ry
     Harris-Foulkes estimate   =   -1258.62759622 Ry
     estimated scf accuracy    <       0.01032965 Ry

     iteration #  6     ecut=    40.00 Ry     beta=0.70
     CG style diagonalization
     ethr =  9.47E-06,  avg # of iterations =  3.4

     total cpu time spent up to now is     2777.3 secs

     total energy              =   -1258.62492251 Ry
     Harris-Foulkes estimate   =   -1258.62525686 Ry
     estimated scf accuracy    <       0.00052108 Ry

     iteration #  7     ecut=    40.00 Ry     beta=0.70
     CG style diagonalization
     c_bands:  1 eigenvalues not converged
     c_bands:  1 eigenvalues not converged
     c_bands:  1 eigenvalues not converged
     c_bands:  1 eigenvalues not converged
     c_bands:  1 eigenvalues not converged
     ethr =  6.20E-07,  avg # of iterations =  5.4

     total cpu time spent up to now is     2838.7 secs

     total energy              =   -1258.62536809 Ry
     Harris-Foulkes estimate   =   -1258.62550827 Ry
     estimated scf accuracy    <       0.00030402 Ry

     iteration #  8     ecut=    40.00 Ry     beta=0.70
     CG style diagonalization
     ethr =  3.62E-07,  avg # of iterations =  3.4

     total cpu time spent up to now is     2876.7 secs

     total energy              =   -1258.62539883 Ry
     Harris-Foulkes estimate   =   -1258.62541657 Ry
     estimated scf accuracy    <       0.00003844 Ry

     iteration #  9     ecut=    40.00 Ry     beta=0.70
     CG style diagonalization
     ethr =  4.58E-08,  avg # of iterations =  4.5

     total cpu time spent up to now is     2927.1 secs

     End of self-consistent calculation

     Number of k-points >= 100: set verbosity='high' to print the bands.

     the Fermi energy is    21.5482 ev

!    total energy              =   -1258.62541532 Ry
     Harris-Foulkes estimate   =   -1258.62541771 Ry
     estimated scf accuracy    <       0.00000314 Ry

     The total energy is the sum of the following terms:

     one-electron contribution =    -483.27685529 Ry
     hartree contribution      =     262.67116016 Ry
     xc contribution           =    -104.05125633 Ry
     ewald contribution        =    -933.78778582 Ry
     smearing contrib. (-TS)   =      -0.18067804 Ry

     convergence has been achieved in   9 iterations

     Forces acting on atoms (Ry/au):

     atom    1 type  1   force =    -0.01138929    0.00415062    0.00452739
     atom    2 type  1   force =     0.01138929   -0.00415062   -0.00452739
     atom    3 type  2   force =    -0.05557027    0.01981206    0.00087339
     atom    4 type  2   force =     0.05557027   -0.01981206   -0.00087339

     Total force =     0.085426     Total SCF correction =     0.000000


     entering subroutine stress ...

          total   stress  (Ry/bohr**3)                   (kbar)     P=  -41.87
  -0.00021550  -0.00007585   0.00000569        -31.70    -11.16      0.84
  -0.00007585  -0.00040113  -0.00000196        -11.16    -59.01     -0.29
   0.00000569  -0.00000196  -0.00023734          0.84     -0.29    -34.91


     The maximum number of steps has been reached.

     End of BFGS Geometry Optimization
Begin final coordinates
     new unit-cell volume =    668.75810 a.u.^3 (    99.09972 Ang^3 )

CELL_PARAMETERS (alat= 13.39297219)
   0.844986401  -0.004399983   0.000021362
  -0.658745569   0.529234969  -0.000022769
   0.000015857  -0.000007304   0.626561793

ATOMIC_POSITIONS (crystal)
Tl       0.382068726   0.617909412   0.751431451
Tl       0.617931274   0.382090588   0.248568549
I        0.131719251   0.868370537   0.749948983
I        0.868280749   0.131629463   0.250051017
End final coordinates



     A final scf calculation at the relaxed structure.
     The G-vectors are recalculated for the final unit cell
     Results may differ from those at the preceding step.
 
     Parallelization info
     --------------------
     sticks:   dense  smooth     PW     G-vecs:    dense   smooth      PW
     Min         251     251     78                 5707     5707     984
     Max         253     253     80                 5708     5708     985
     Sum        1009    1009    315                22829    22829    3937
 


     bravais-lattice index     =            0
     lattice parameter (alat)  =      13.3930  a.u.
     unit-cell volume          =     668.7581 (a.u.)^3
     number of atoms/cell      =            4
     number of atomic types    =            2
     number of electrons       =        84.00
     number of Kohn-Sham states=           50
     kinetic-energy cutoff     =      40.0000  Ry
     charge density cutoff     =     160.0000  Ry
     convergence threshold     =      3.8E-05
     mixing beta               =       0.7000
     number of iterations used =            8  plain     mixing
     Exchange-correlation      = SLA-PZ-NOGX-NOGC ( 1 1 0 0 0)
     EXX-fraction              =        0.00

     celldm(1)=  13.392972  celldm(2)=   0.000000  celldm(3)=   0.000000
     celldm(4)=   0.000000  celldm(5)=   0.000000  celldm(6)=   0.000000

     crystal axes: (cart. coord. in units of alat)
               a(1) = (   0.844986  -0.004400   0.000021 )  
               a(2) = (  -0.658746   0.529235  -0.000023 )  
               a(3) = (   0.000016  -0.000007   0.626562 )  

     reciprocal axes: (cart. coord. in units 2 pi/alat)
               b(1) = (  1.191171  1.482666 -0.000013 )  
               b(2) = (  0.009903  1.901847  0.000022 )  
               b(3) = ( -0.000040  0.000019  1.596012 )  


     PseudoPot. # 1 for Lu read from file:
     /home/cwx6513/pp.La/La.UPF
     MD5 check sum: 4fc038260c66a0bf25fb4835376efb80
     Pseudo is Norm-conserving, Zval = 25.0
     Generated in analytical, separable form
     Using radial grid of 1271 points,  6 beta functions with: 
                l(1) =   0
                l(2) =   0
                l(3) =   1
                l(4) =   1
                l(5) =   2
                l(6) =   3

     PseudoPot. # 2 for Eu read from file:
     /home/cwx6513/pp.La/Eu.UPF
     MD5 check sum: 5efdbbfc50c6a10138933a6429836ad2
     Pseudo is Norm-conserving, Zval = 17.0
     Generated in analytical, separable form
     Using radial grid of 1261 points,  6 beta functions with: 
                l(1) =   0
                l(2) =   0
                l(3) =   1
                l(4) =   1
                l(5) =   2
                l(6) =   3

     atomic species   valence    mass     pseudopotential
        Tl            25.00   204.38300     Lu( 1.00)
        I             17.00   126.90400     Eu( 1.00)

      2 Sym. Ops., with inversion, found
          (note:  2 additional sym.ops. were found but ignored
           their fractional translations are incommensurate with FFT grid)


   Cartesian axes

     site n.     atom                  positions (alat units)
         1           Tl  tau(   1) = (  -0.0841903   0.3253327   0.4708123  )
         2           Tl  tau(   2) = (   0.2704470   0.1994950   0.1557481  )
         3           I   tau(   3) = (  -0.4607224   0.4589870   0.4698724  )
         4           I   tau(   4) = (   0.6469791   0.0658407   0.1566880  )

     number of k points=   106  gaussian smearing, width (Ry)=  0.1000

     Number of k-points >= 100: set verbosity='high' to print them.

     Dense  grid:    22829 G-vectors     FFT dimensions: (  45,  45,  36)

     Largest allocated arrays     est. size (Mb)     dimensions
        Kohn-Sham Wavefunctions         0.55 Mb     (    723,   50)
        NL pseudopotentials             0.88 Mb     (    723,   80)
        Each V/rho on FFT grid          0.28 Mb     (  18225)
        Each G-vector array             0.04 Mb     (   5708)
        G-vector shells                 0.04 Mb     (   5426)
     Largest temporary arrays     est. size (Mb)     dimensions
        Each subspace H/S matrix        0.04 Mb     (  50,  50)
        Each <psi_i|beta_j> matrix      0.06 Mb     (     80,   50)
        Arrays for rho mixing           2.22 Mb     (  18225,   8)

     Initial potential from superposition of free atoms

     Starting from uniform charge
     Starting wfc are    0 randomized atomic wfcs

     Writing output data file Prototype-La-oS8-TlI.save

     total cpu time spent up to now is     2939.4 secs

     Self-consistent Calculation

     iteration #  1     ecut=    40.00 Ry     beta=0.70
     CG style diagonalization
     c_bands:  2 eigenvalues not converged
     c_bands:  2 eigenvalues not converged
     c_bands:  2 eigenvalues not converged
     c_bands:  2 eigenvalues not converged
     c_bands:  2 eigenvalues not converged
     c_bands:  2 eigenvalues not converged
     c_bands:  2 eigenvalues not converged
     c_bands:  2 eigenvalues not converged
     c_bands:  2 eigenvalues not converged
     c_bands:  2 eigenvalues not converged
     c_bands:  2 eigenvalues not converged
     c_bands:  2 eigenvalues not converged
     c_bands:  2 eigenvalues not converged
     c_bands:  2 eigenvalues not converged
     c_bands:  2 eigenvalues not converged
     c_bands:  2 eigenvalues not converged
     c_bands:  2 eigenvalues not converged
     c_bands:  2 eigenvalues not converged
     c_bands:  2 eigenvalues not converged
     c_bands:  2 eigenvalues not converged
     c_bands:  2 eigenvalues not converged
     c_bands:  2 eigenvalues not converged
     c_bands:  2 eigenvalues not converged
     c_bands:  2 eigenvalues not converged
     c_bands:  2 eigenvalues not converged
     c_bands:  2 eigenvalues not converged
     c_bands:  2 eigenvalues not converged
     c_bands:  2 eigenvalues not converged
     c_bands:  2 eigenvalues not converged
     c_bands:  2 eigenvalues not converged
     c_bands:  2 eigenvalues not converged
     c_bands:  2 eigenvalues not converged
     c_bands:  2 eigenvalues not converged
     c_bands:  2 eigenvalues not converged
     c_bands:  2 eigenvalues not converged
     c_bands:  2 eigenvalues not converged
     c_bands:  2 eigenvalues not converged
     c_bands:  2 eigenvalues not converged
     c_bands:  2 eigenvalues not converged
     c_bands:  2 eigenvalues not converged
     c_bands:  2 eigenvalues not converged
     c_bands:  2 eigenvalues not converged
     c_bands:  2 eigenvalues not converged
     c_bands:  2 eigenvalues not converged
     c_bands:  2 eigenvalues not converged
     c_bands:  2 eigenvalues not converged
     c_bands:  2 eigenvalues not converged
     c_bands:  2 eigenvalues not converged
     c_bands:  2 eigenvalues not converged
     c_bands:  2 eigenvalues not converged
     c_bands:  2 eigenvalues not converged
     c_bands:  2 eigenvalues not converged
     c_bands:  2 eigenvalues not converged
     c_bands:  2 eigenvalues not converged
     c_bands:  2 eigenvalues not converged
     c_bands:  2 eigenvalues not converged
     c_bands:  2 eigenvalues not converged
     c_bands:  2 eigenvalues not converged
     c_bands:  2 eigenvalues not converged
     c_bands:  2 eigenvalues not converged
     c_bands:  2 eigenvalues not converged
     c_bands:  2 eigenvalues not converged
     c_bands:  2 eigenvalues not converged
     c_bands:  2 eigenvalues not converged
     c_bands:  2 eigenvalues not converged
     c_bands:  2 eigenvalues not converged
     c_bands:  2 eigenvalues not converged
     c_bands:  2 eigenvalues not converged
     c_bands:  2 eigenvalues not converged
     c_bands:  2 eigenvalues not converged
     c_bands:  2 eigenvalues not converged
     c_bands:  2 eigenvalues not converged
     c_bands:  2 eigenvalues not converged
     c_bands:  2 eigenvalues not converged
     c_bands:  2 eigenvalues not converged
     c_bands:  2 eigenvalues not converged
     c_bands:  2 eigenvalues not converged
     c_bands:  2 eigenvalues not converged
     c_bands:  2 eigenvalues not converged
     c_bands:  2 eigenvalues not converged
     c_bands:  2 eigenvalues not converged
     c_bands:  2 eigenvalues not converged
     c_bands:  2 eigenvalues not converged
     c_bands:  2 eigenvalues not converged
     c_bands:  2 eigenvalues not converged
     c_bands:  2 eigenvalues not converged
     c_bands:  2 eigenvalues not converged
     c_bands:  2 eigenvalues not converged
     c_bands:  2 eigenvalues not converged
     c_bands:  2 eigenvalues not converged
     c_bands:  2 eigenvalues not converged
     c_bands:  2 eigenvalues not converged
     c_bands:  2 eigenvalues not converged
     c_bands:  2 eigenvalues not converged
     c_bands:  2 eigenvalues not converged
     c_bands:  2 eigenvalues not converged
     c_bands:  2 eigenvalues not converged
     c_bands:  2 eigenvalues not converged
     c_bands:  2 eigenvalues not converged
     c_bands:  2 eigenvalues not converged
     c_bands:  2 eigenvalues not converged
     c_bands:  2 eigenvalues not converged
     c_bands:  2 eigenvalues not converged
     c_bands:  2 eigenvalues not converged
     c_bands:  2 eigenvalues not converged
     c_bands:  2 eigenvalues not converged
     ethr =  1.00E-06,  avg # of iterations = 45.1

     total cpu time spent up to now is     3180.3 secs

     total energy              =    -629.97106447 Ry
     Harris-Foulkes estimate   =   -1774.85559332 Ry
     estimated scf accuracy    <    1362.04082810 Ry

     iteration #  2     ecut=    40.00 Ry     beta=0.70
     CG style diagonalization
     c_bands:  4 eigenvalues not converged
     c_bands:  4 eigenvalues not converged
     c_bands:  4 eigenvalues not converged
     c_bands:  5 eigenvalues not converged
     c_bands:  4 eigenvalues not converged
     c_bands:  4 eigenvalues not converged
     c_bands:  1 eigenvalues not converged
     c_bands:  1 eigenvalues not converged
     c_bands:  1 eigenvalues not converged
     c_bands:  3 eigenvalues not converged
     c_bands:  2 eigenvalues not converged
     c_bands:  1 eigenvalues not converged
     c_bands:  1 eigenvalues not converged
     c_bands:  3 eigenvalues not converged
     c_bands:  4 eigenvalues not converged
     c_bands:  1 eigenvalues not converged
     c_bands:  1 eigenvalues not converged
     c_bands:  5 eigenvalues not converged
     c_bands:  1 eigenvalues not converged
     c_bands:  4 eigenvalues not converged
     c_bands:  2 eigenvalues not converged
     c_bands:  3 eigenvalues not converged
     c_bands:  1 eigenvalues not converged
     c_bands:  1 eigenvalues not converged
     c_bands:  1 eigenvalues not converged
     c_bands:  1 eigenvalues not converged
     c_bands:  1 eigenvalues not converged
     c_bands:  2 eigenvalues not converged
     c_bands:  1 eigenvalues not converged
     c_bands:  1 eigenvalues not converged
     c_bands:  1 eigenvalues not converged
     c_bands:  1 eigenvalues not converged
     c_bands:  1 eigenvalues not converged
     c_bands:  4 eigenvalues not converged
     c_bands:  1 eigenvalues not converged
     c_bands:  2 eigenvalues not converged
     ethr =  1.00E-02,  avg # of iterations = 13.2

     total cpu time spent up to now is     3255.8 secs

     total energy              =    -939.64810903 Ry
     Harris-Foulkes estimate   =   -1870.84535106 Ry
     estimated scf accuracy    <    1832.82799443 Ry

     iteration #  3     ecut=    40.00 Ry     beta=0.70
     CG style diagonalization
     ethr =  1.00E-02,  avg # of iterations = 11.5

     total cpu time spent up to now is     3319.7 secs

     total energy              =   -1249.69090733 Ry
     Harris-Foulkes estimate   =   -1270.26792570 Ry
     estimated scf accuracy    <      30.98504875 Ry

     iteration #  4     ecut=    40.00 Ry     beta=0.70
     CG style diagonalization
     ethr =  1.00E-02,  avg # of iterations =  4.8

     total cpu time spent up to now is     3346.7 secs

     total energy              =   -1256.62685229 Ry
     Harris-Foulkes estimate   =   -1259.60379888 Ry
     estimated scf accuracy    <       7.21092379 Ry

     iteration #  5     ecut=    40.00 Ry     beta=0.70
     CG style diagonalization
     ethr =  8.58E-03,  avg # of iterations =  3.3

     total cpu time spent up to now is     3365.3 secs

     total energy              =   -1256.98208240 Ry
     Harris-Foulkes estimate   =   -1257.75401657 Ry
     estimated scf accuracy    <       1.22421508 Ry

     iteration #  6     ecut=    40.00 Ry     beta=0.70
     CG style diagonalization
     ethr =  1.46E-03,  avg # of iterations =  4.0

     total cpu time spent up to now is     3387.8 secs

     total energy              =   -1257.34685077 Ry
     Harris-Foulkes estimate   =   -1257.76722644 Ry
     estimated scf accuracy    <       0.98595705 Ry

     iteration #  7     ecut=    40.00 Ry     beta=0.70
     CG style diagonalization
     ethr =  1.17E-03,  avg # of iterations =  3.3

     total cpu time spent up to now is     3407.2 secs

     total energy              =   -1257.47679639 Ry
     Harris-Foulkes estimate   =   -1257.49731534 Ry
     estimated scf accuracy    <       0.03477255 Ry

     iteration #  8     ecut=    40.00 Ry     beta=0.70
     CG style diagonalization
     c_bands:  2 eigenvalues not converged
     c_bands:  1 eigenvalues not converged
     c_bands:  1 eigenvalues not converged
     c_bands:  1 eigenvalues not converged
     c_bands:  2 eigenvalues not converged
     c_bands:  1 eigenvalues not converged
     c_bands:  1 eigenvalues not converged
     c_bands:  2 eigenvalues not converged
     ethr =  4.14E-05,  avg # of iterations =  4.4

     total cpu time spent up to now is     3433.6 secs

     total energy              =   -1257.49455833 Ry
     Harris-Foulkes estimate   =   -1257.49926530 Ry
     estimated scf accuracy    <       0.01495916 Ry

     iteration #  9     ecut=    40.00 Ry     beta=0.70
     CG style diagonalization
     ethr =  1.78E-05,  avg # of iterations =  3.2

     total cpu time spent up to now is     3452.3 secs

     total energy              =   -1257.49479402 Ry
     Harris-Foulkes estimate   =   -1257.49590355 Ry
     estimated scf accuracy    <       0.00259110 Ry

     iteration # 10     ecut=    40.00 Ry     beta=0.70
     CG style diagonalization
     c_bands:  1 eigenvalues not converged
     ethr =  3.08E-06,  avg # of iterations =  3.9

     total cpu time spent up to now is     3474.8 secs

     End of self-consistent calculation

     Number of k-points >= 100: set verbosity='high' to print the bands.

     the Fermi energy is    21.6407 ev

!    total energy              =   -1257.49544930 Ry
     Harris-Foulkes estimate   =   -1257.49546282 Ry
     estimated scf accuracy    <       0.00001835 Ry

     The total energy is the sum of the following terms:

     one-electron contribution =    -481.28077977 Ry
     hartree contribution      =     261.63286195 Ry
     xc contribution           =    -103.88116617 Ry
     ewald contribution        =    -933.78778584 Ry
     smearing contrib. (-TS)   =      -0.17857948 Ry

     convergence has been achieved in  10 iterations

     Forces acting on atoms (Ry/au):

     atom    1 type  1   force =    -0.00371242    0.00042313    0.01692886
     atom    2 type  1   force =     0.00371242   -0.00042313   -0.01692886
     atom    3 type  2   force =    -0.06001279    0.02030030    0.01330932
     atom    4 type  2   force =     0.06001279   -0.02030030   -0.01330932

     Total force =     0.094777     Total SCF correction =     0.000000


     entering subroutine stress ...

          total   stress  (Ry/bohr**3)                   (kbar)     P= -570.93
  -0.00377296  -0.00011890   0.00000690       -555.02    -17.49      1.01
  -0.00011890  -0.00406057  -0.00000174        -17.49   -597.33     -0.26
   0.00000690  -0.00000174  -0.00380982          1.01     -0.26   -560.44


     Writing output data file Prototype-La-oS8-TlI.save
 
     init_run     :     11.85s CPU     15.18s WALL (       2 calls)
     electrons    :   2660.67s CPU   3430.16s WALL (       5 calls)
     update_pot   :      2.56s CPU      2.60s WALL (       3 calls)
     forces       :      6.99s CPU      7.66s WALL (       5 calls)
     stress       :     19.39s CPU     20.83s WALL (       5 calls)

     Called by init_run:
     wfcinit      :     10.85s CPU     14.16s WALL (       2 calls)
     potinit      :      0.53s CPU      0.54s WALL (       2 calls)

     Called by electrons:
     c_bands      :   2538.55s CPU   3263.26s WALL (      48 calls)
     sum_band     :    121.47s CPU    165.17s WALL (      48 calls)
     v_of_rho     :      0.13s CPU      0.16s WALL (      53 calls)
     mix_rho      :      0.10s CPU      0.14s WALL (      48 calls)

     Called by c_bands:
     init_us_2    :      7.32s CPU     10.01s WALL (   11448 calls)
     ccgdiagg     :   2231.52s CPU   2845.82s WALL (    5765 calls)
     wfcrot       :    310.69s CPU    417.35s WALL (    5871 calls)

     Called by *cgdiagg:
     h_psi        :   2060.83s CPU   2722.73s WALL ( 1498363 calls)
     cdiaghg      :      5.63s CPU      6.09s WALL (    5871 calls)

     Called by h_psi:
     add_vuspsi   :    100.69s CPU    146.59s WALL ( 1498363 calls)

     General routines
     calbec       :    375.97s CPU    420.69s WALL ( 2991915 calls)
     fft          :      0.15s CPU      0.20s WALL (     235 calls)
     fftw         :   1644.12s CPU   2163.70s WALL ( 3826484 calls)
     davcio       :      5.00s CPU     11.95s WALL (   16536 calls)
 
     Parallel routines
     fft_scatter  :    652.94s CPU    889.93s WALL ( 3826719 calls)
 
     PWSCF        : 45m 2.44s CPU    57m58.54s WALL

 
   This run was terminated on:   1: 1: 7  22Mar2018            

=------------------------------------------------------------------------------=
   JOB DONE.
=------------------------------------------------------------------------------=
