
     Program PWSCF v.5.0.2 starts on 22Mar2018 at 22:48:54 

     This program is part of the open-source Quantum ESPRESSO suite
     for quantum simulation of materials; please cite
         "P. Giannozzi et al., J. Phys.:Condens. Matter 21 395502 (2009);
          URL http://www.quantum-espresso.org", 
     in publications or presentations arising from this work. More details at
     http://www.quantum-espresso.org/quote.php

     Parallel version (MPI), running on     4 processors
     R & G space division:  proc/nbgrp/npool/nimage =       4

     Current dimensions of program PWSCF are:
     Max number of different atomic species (ntypx) = 10
     Max number of k-points (npk) =  40000
     Max angular momentum in pseudopotentials (lmaxx) =  3
     Waiting for input...
     Reading input from standard input

     Subspace diagonalization in iterative solution of the eigenvalue problem:
     a serial algorithm will be used

 
     Parallelization info
     --------------------
     sticks:   dense  smooth     PW     G-vecs:    dense   smooth      PW
     Min         207     207     61                 7381     7381    1191
     Max         208     208     62                 7386     7386    1192
     Sum         829     829    247                29529    29529    4767
 


     bravais-lattice index     =            0
     lattice parameter (alat)  =       7.0151  a.u.
     unit-cell volume          =     862.2778 (a.u.)^3
     number of atoms/cell      =           12
     number of atomic types    =            2
     number of electrons       =       200.00
     number of Kohn-Sham states=          120
     kinetic-energy cutoff     =      40.0000  Ry
     charge density cutoff     =     160.0000  Ry
     convergence threshold     =      1.0E-04
     mixing beta               =       0.7000
     number of iterations used =            8  plain     mixing
     Exchange-correlation      = SLA-PZ-NOGX-NOGC ( 1 1 0 0 0)
     EXX-fraction              =        0.00
     nstep                     =           50


     celldm(1)=   7.015105  celldm(2)=   0.000000  celldm(3)=   0.000000
     celldm(4)=   0.000000  celldm(5)=   0.000000  celldm(6)=   0.000000

     crystal axes: (cart. coord. in units of alat)
               a(1) = (   1.000000   0.000000   0.000000 )  
               a(2) = (   0.000000   1.315963   0.000000 )  
               a(3) = (   0.000000   0.000000   1.898020 )  

     reciprocal axes: (cart. coord. in units 2 pi/alat)
               b(1) = (  1.000000  0.000000  0.000000 )  
               b(2) = (  0.000000  0.759900  0.000000 )  
               b(3) = (  0.000000  0.000000  0.526865 )  


     PseudoPot. # 1 for Gd read from file:
     /home/cwx6513/pp.La/Gd.UPF
     MD5 check sum: 09a8be538722f05520810cb6aac0efd2
     Pseudo is Norm-conserving, Zval = 18.0
     Generated in analytical, separable form
     Using radial grid of 1263 points,  6 beta functions with: 
                l(1) =   0
                l(2) =   0
                l(3) =   1
                l(4) =   1
                l(5) =   2
                l(6) =   3

     PseudoPot. # 2 for Nd read from file:
     /home/cwx6513/pp.La/Nd.UPF
     MD5 check sum: c66c5b6abe7b5840ced9b1e244e3bed6
     Pseudo is Norm-conserving, Zval = 14.0
     Generated in analytical, separable form
     Using radial grid of 1257 points,  6 beta functions with: 
                l(1) =   0
                l(2) =   0
                l(3) =   1
                l(4) =   1
                l(5) =   2
                l(6) =   3

     atomic species   valence    mass     pseudopotential
        Co            18.00    58.93320     Gd( 1.00)
        Si            14.00    28.08550     Nd( 1.00)

      8 Sym. Ops., with inversion, found ( 6 have fractional translation)



   Cartesian axes

     site n.     atom                  positions (alat units)
         1           Co  tau(   1) = (   0.7500000   1.0875135   0.8270358  )
         2           Co  tau(   2) = (   0.2500000   0.2284499   1.0709846  )
         3           Co  tau(   3) = (   0.7500000   0.4295318   0.1219744  )
         4           Co  tau(   4) = (   0.2500000   0.8864316   1.7760460  )
         5           Co  tau(   5) = (   0.2500000   0.7067855   0.5358966  )
         6           Co  tau(   6) = (   0.7500000   0.6091779   1.3621238  )
         7           Co  tau(   7) = (   0.2500000   0.0488038   0.4131136  )
         8           Co  tau(   8) = (   0.7500000   1.2671596   1.4849068  )
         9           Si  tau(   9) = (   0.2500000   0.2669484   1.6960710  )
        10           Si  tau(  10) = (   0.7500000   1.0490149   0.2019494  )
        11           Si  tau(  11) = (   0.2500000   0.9249301   1.1509596  )
        12           Si  tau(  12) = (   0.7500000   0.3910333   0.7470608  )

     number of k points=    12  gaussian smearing, width (Ry)=  0.1000
                       cart. coord. in units 2pi/alat
        k(    1) = (   0.0000000   0.0000000   0.0000000), wk =   0.0833333
        k(    2) = (   0.0000000   0.0000000   0.1317162), wk =   0.1666667
        k(    3) = (   0.0000000   0.0000000  -0.2634324), wk =   0.0833333
        k(    4) = (   0.0000000   0.2532999   0.0000000), wk =   0.1666667
        k(    5) = (   0.0000000   0.2532999   0.1317162), wk =   0.3333333
        k(    6) = (   0.0000000   0.2532999  -0.2634324), wk =   0.1666667
        k(    7) = (  -0.5000000   0.0000000   0.0000000), wk =   0.0833333
        k(    8) = (  -0.5000000   0.0000000   0.1317162), wk =   0.1666667
        k(    9) = (  -0.5000000   0.0000000  -0.2634324), wk =   0.0833333
        k(   10) = (  -0.5000000   0.2532999   0.0000000), wk =   0.1666667
        k(   11) = (  -0.5000000   0.2532999   0.1317162), wk =   0.3333333
        k(   12) = (  -0.5000000   0.2532999  -0.2634324), wk =   0.1666667

     Dense  grid:    29529 G-vectors     FFT dimensions: (  30,  40,  54)

     Largest allocated arrays     est. size (Mb)     dimensions
        Kohn-Sham Wavefunctions         1.69 Mb     (    922,  120)
        NL pseudopotentials             3.38 Mb     (    922,  240)
        Each V/rho on FFT grid          0.26 Mb     (  16800)
        Each G-vector array             0.06 Mb     (   7386)
        G-vector shells                 0.06 Mb     (   7386)
     Largest temporary arrays     est. size (Mb)     dimensions
        Each subspace H/S matrix        0.22 Mb     ( 120, 120)
        Each <psi_i|beta_j> matrix      0.44 Mb     (    240,  120)
        Arrays for rho mixing           2.05 Mb     (  16800,   8)

     Initial potential from superposition of free atoms

     Starting from uniform charge
     Starting wfc are    0 randomized atomic wfcs

     total cpu time spent up to now is        2.3 secs

     Self-consistent Calculation

     iteration #  1     ecut=    40.00 Ry     beta=0.70
     CG style diagonalization
     c_bands:  2 eigenvalues not converged
     c_bands:  2 eigenvalues not converged
     c_bands:  2 eigenvalues not converged
     c_bands:  3 eigenvalues not converged
     c_bands:  5 eigenvalues not converged
     c_bands:  1 eigenvalues not converged
     c_bands:  4 eigenvalues not converged
     c_bands:  5 eigenvalues not converged
     c_bands:  3 eigenvalues not converged
     c_bands:  2 eigenvalues not converged
     ethr =  1.00E-02,  avg # of iterations = 12.8

     total cpu time spent up to now is       33.8 secs

     total energy              =   -1890.72129980 Ry
     Harris-Foulkes estimate   =   -2218.95510403 Ry
     estimated scf accuracy    <     429.42785144 Ry

     iteration #  2     ecut=    40.00 Ry     beta=0.70
     CG style diagonalization
     ethr =  1.00E-02,  avg # of iterations =  9.8

     total cpu time spent up to now is       58.7 secs

     total energy              =   -1959.49969187 Ry
     Harris-Foulkes estimate   =   -2104.49836319 Ry
     estimated scf accuracy    <     239.67448623 Ry

     iteration #  3     ecut=    40.00 Ry     beta=0.70
     CG style diagonalization
     ethr =  1.00E-02,  avg # of iterations =  7.2

     total cpu time spent up to now is       75.4 secs

     total energy              =   -2032.27283089 Ry
     Harris-Foulkes estimate   =   -2052.57419614 Ry
     estimated scf accuracy    <      42.97798102 Ry

     iteration #  4     ecut=    40.00 Ry     beta=0.70
     CG style diagonalization
     ethr =  1.00E-02,  avg # of iterations =  4.0

     total cpu time spent up to now is       84.0 secs

     total energy              =   -2039.50899929 Ry
     Harris-Foulkes estimate   =   -2041.24973393 Ry
     estimated scf accuracy    <       3.80457807 Ry

     iteration #  5     ecut=    40.00 Ry     beta=0.70
     CG style diagonalization
     ethr =  1.90E-03,  avg # of iterations =  3.9

     total cpu time spent up to now is       92.8 secs

     total energy              =   -2040.26577326 Ry
     Harris-Foulkes estimate   =   -2040.49277866 Ry
     estimated scf accuracy    <       0.44518223 Ry

     iteration #  6     ecut=    40.00 Ry     beta=0.70
     CG style diagonalization
     c_bands:  1 eigenvalues not converged
     c_bands:  1 eigenvalues not converged
     ethr =  2.23E-04,  avg # of iterations =  4.4

     total cpu time spent up to now is      102.7 secs

     total energy              =   -2040.40791599 Ry
     Harris-Foulkes estimate   =   -2040.43719381 Ry
     estimated scf accuracy    <       0.05930621 Ry

     iteration #  7     ecut=    40.00 Ry     beta=0.70
     CG style diagonalization
     c_bands:  1 eigenvalues not converged
     c_bands:  2 eigenvalues not converged
     c_bands:  1 eigenvalues not converged
     c_bands:  1 eigenvalues not converged
     ethr =  2.97E-05,  avg # of iterations =  4.6

     total cpu time spent up to now is      113.1 secs

     total energy              =   -2040.42844930 Ry
     Harris-Foulkes estimate   =   -2040.44235223 Ry
     estimated scf accuracy    <       0.03633996 Ry

     iteration #  8     ecut=    40.00 Ry     beta=0.70
     CG style diagonalization
     ethr =  1.82E-05,  avg # of iterations =  3.3

     total cpu time spent up to now is      119.9 secs

     total energy              =   -2040.43059935 Ry
     Harris-Foulkes estimate   =   -2040.43298358 Ry
     estimated scf accuracy    <       0.00472152 Ry

     iteration #  9     ecut=    40.00 Ry     beta=0.70
     CG style diagonalization
     c_bands:  1 eigenvalues not converged
     c_bands:  2 eigenvalues not converged
     c_bands:  1 eigenvalues not converged
     c_bands:  2 eigenvalues not converged
     c_bands:  1 eigenvalues not converged
     ethr =  2.36E-06,  avg # of iterations =  4.3

     total cpu time spent up to now is      129.1 secs

     total energy              =   -2040.43199464 Ry
     Harris-Foulkes estimate   =   -2040.43204561 Ry
     estimated scf accuracy    <       0.00013500 Ry

     iteration # 10     ecut=    40.00 Ry     beta=0.70
     CG style diagonalization
     c_bands:  1 eigenvalues not converged
     ethr =  6.75E-08,  avg # of iterations =  4.8

     total cpu time spent up to now is      139.5 secs

     End of self-consistent calculation

          k = 0.0000 0.0000 0.0000 (  3675 PWs)   bands (ev):

   -23.8750 -23.4728 -23.4620 -23.2633 -23.1655 -22.9879 -22.9439 -22.9183
    -1.9547  -1.8693  -1.5918  -1.2035   3.2512   3.6931   3.7747   3.8336
     4.1974   4.2766   4.3113   4.4233   4.5289   5.0577   5.0874   5.2277
     5.2672   5.2881   5.2950   5.5580   5.6680   5.6990   5.8412   5.8881
     6.1362   6.1599   6.6670   6.8562  18.7916  19.2267  19.2339  19.2823
    19.5679  19.8436  19.9205  19.9731  20.0383  20.1906  20.5916  20.7362
    33.0716  33.0958  33.2446  33.8935  33.9327  34.0924  34.3134  34.7909
    34.9590  36.0552  36.1735  36.6275  36.9322  37.3083  37.6908  37.8486
    38.3021  38.3815  38.5916  39.1385  39.3229  39.5319  39.8948  40.1989
    40.6733  40.6968  41.0709  41.0915  41.1885  41.9259  42.1561  42.2596
    42.8669  43.0951  43.2045  43.2294  43.5839  43.5964  44.7137  44.7954
    45.4961  45.9236  46.3447  46.5035  46.6701  47.2957  47.5075  47.8010
    48.1754  48.5311  48.5360  49.6632  50.0454  50.7102  50.7129  50.9729
    51.4150  51.6437  52.2274  52.2617  52.6974  52.9904  53.5093  53.9652
    54.9429  55.1737  55.6097  55.6734  55.9317  56.3894  56.5631  56.7372

          k = 0.0000 0.0000 0.1317 (  3675 PWs)   bands (ev):

   -23.8429 -23.6172 -23.3395 -23.2666 -23.1478 -23.0173 -22.9357 -22.9225
    -1.9359  -1.7396  -1.6620  -1.2854   3.3283   3.6871   3.6985   3.8637
     4.0014   4.2130   4.2676   4.6277   4.6686   4.8600   5.0528   5.1603
     5.2348   5.2888   5.3576   5.4905   5.6697   5.6835   5.8036   5.9356
     6.2627   6.3696   6.6947   6.8264  18.8485  19.1509  19.2672  19.2751
    19.5646  19.8035  19.9283  19.9581  19.9687  20.1626  20.5942  20.6941
    32.8369  33.1276  33.4560  33.5895  33.7073  34.1209  34.6219  35.0253
    35.4816  35.7729  36.7827  36.9730  37.1368  37.5101  37.5908  38.0235
    38.1611  38.5075  38.7346  39.2103  39.4418  39.5358  39.7905  39.8017
    39.8920  40.1620  41.0062  41.0496  41.0924  41.5829  41.7029  42.0613
    42.6791  42.8578  43.4964  43.4969  43.9911  44.2823  44.4891  44.5985
    45.1312  45.6391  46.0701  46.6898  47.0537  47.2195  47.2255  47.4709
    48.2933  48.9087  49.1707  49.7020  49.8386  50.3956  50.8975  51.0274
    51.6448  51.7141  52.0719  52.1107  52.1263  53.3193  53.4070  54.1887
    55.2021  55.4262  56.0663  56.2009  56.2437  56.4162  56.4696  56.6319

          k = 0.0000 0.0000-0.2634 (  3690 PWs)   bands (ev):

   -23.7535 -23.7535 -23.2788 -23.2788 -23.0867 -23.0867 -22.9294 -22.9294
    -1.8162  -1.8162  -1.4982  -1.4982   3.5440   3.5440   3.6886   3.6886
     4.1251   4.1251   4.3656   4.3656   4.9127   4.9127   4.9358   4.9358
     5.2613   5.2613   5.5247   5.5247   5.7239   5.7239   5.7277   5.7277
     6.4615   6.4615   6.7579   6.7579  18.9913  18.9913  19.2933  19.2933
    19.6179  19.6179  19.9151  19.9151  20.0757  20.0757  20.6218  20.6218
    32.9169  32.9169  33.2162  33.2162  33.9946  33.9946  35.8324  35.8324
    35.8810  35.8810  36.2736  36.2736  37.8618  37.8618  37.8948  37.8948
    38.0009  38.0009  38.8747  38.8747  39.1336  39.1336  39.4940  39.4940
    40.5446  40.5446  41.1180  41.1180  41.2836  41.2836  41.8865  41.8865
    42.2606  42.2606  43.0856  43.0856  43.7669  43.7669  44.9774  44.9774
    45.5385  45.5385  46.0579  46.0579  47.1280  47.1280  47.2194  47.2194
    49.4054  49.4054  49.7573  49.7573  50.2880  50.2880  50.5961  50.5961
    51.0559  51.0559  51.5224  51.5225  53.1742  53.1742  54.6891  54.6892
    55.3837  55.3838  55.6281  55.6282  55.8752  55.8752  57.4414  57.4418

          k = 0.0000 0.2533 0.0000 (  3664 PWs)   bands (ev):

   -23.7548 -23.5247 -23.3935 -23.3482 -23.1695 -23.0333 -22.9512 -22.9193
    -2.0804  -2.0405  -1.4578  -1.2749   3.5269   3.8892   4.0762   4.0996
     4.1684   4.2220   4.3066   4.4414   4.4885   4.8452   5.1628   5.2244
     5.3863   5.4041   5.6209   5.6675   5.7617   5.7816   5.7846   5.9309
     5.9745   6.0967   6.2661   6.5252  18.9507  19.0777  19.1497  19.2076
    19.3623  19.4653  19.6036  19.6179  19.8685  20.1475  20.2154  20.3871
    33.7600  33.9523  34.0395  34.1034  34.7279  34.7622  35.3137  35.4739
    35.4968  35.5088  36.5962  36.6217  36.9541  37.0098  37.3456  37.8700
    38.3345  38.4648  38.6817  38.8237  39.6393  39.6892  40.0996  40.1663
    40.5492  40.8268  41.2037  41.4375  41.5042  41.7034  41.7194  42.3562
    42.9794  43.0001  43.1929  43.4319  43.6089  43.6640  44.5629  45.3128
    45.4312  45.5914  45.8539  46.4703  46.8350  47.3446  47.4511  47.5015
    47.5033  48.3510  48.4126  49.0262  49.5645  49.7466  49.9001  50.4353
    50.7115  50.7145  50.9471  51.8450  51.9965  52.1839  53.2758  53.3520
    54.1588  54.3453  55.2749  56.6867  56.7731  56.8979  56.9747  57.1668

          k = 0.0000 0.2533 0.1317 (  3669 PWs)   bands (ev):

   -23.7289 -23.5677 -23.4077 -23.3473 -23.1279 -23.0122 -22.9747 -22.9324
    -2.0350  -1.9694  -1.5084  -1.3532   3.5906   3.8381   3.9101   4.0090
     4.1360   4.3122   4.3487   4.5084   4.6785   4.7567   5.0433   5.2181
     5.2761   5.4278   5.4567   5.6811   5.7343   5.7804   5.8765   5.9252
     6.1775   6.1982   6.3044   6.5063  19.0053  19.0771  19.1317  19.2010
    19.3328  19.3362  19.5789  19.7451  19.7652  20.0874  20.2411  20.3827
    33.6362  33.7415  34.0710  34.2534  34.7117  34.9965  35.1816  35.7006
    35.7855  35.9860  36.4032  36.5698  36.9678  37.4205  37.4483  38.0383
    38.1945  38.3218  38.5287  39.2318  39.2760  39.5373  39.9837  40.1710
    40.2966  40.7958  41.2194  41.3599  41.4059  41.7430  42.0773  42.3450
    42.3958  42.7606  42.9508  43.6053  43.7389  43.8586  44.4433  44.8583
    45.2238  45.5145  45.8610  46.3432  46.3938  47.0797  47.2363  47.6817
    48.2057  48.4681  48.5760  49.4945  49.5726  49.8707  50.0833  50.3137
    50.5345  50.8008  51.1105  51.2698  51.7566  52.2827  52.7082  53.9525
    54.2080  54.7606  56.1255  56.4054  56.5426  56.5912  56.9143  57.1316

          k = 0.0000 0.2533-0.2634 (  3666 PWs)   bands (ev):

   -23.6573 -23.6573 -23.3827 -23.3827 -23.0442 -23.0442 -22.9649 -22.9649
    -1.9321  -1.9321  -1.5064  -1.5064   3.7697   3.7697   3.8172   3.8172
     4.2743   4.2743   4.4374   4.4374   4.7297   4.7297   5.0421   5.0421
     5.3988   5.3988   5.5131   5.5131   5.8274   5.8274   5.8404   5.8404
     6.3211   6.3211   6.4128   6.4128  19.0832  19.0832  19.1511  19.1511
    19.2615  19.2615  19.6136  19.6136  19.9306  19.9306  20.3200  20.3200
    33.6440  33.6440  33.8967  33.8967  35.3187  35.3187  35.6350  35.6350
    35.9565  35.9565  36.9015  36.9015  36.9760  36.9760  37.8909  37.8909
    38.0026  38.0026  38.7793  38.7793  39.1946  39.1946  40.0702  40.0702
    40.4523  40.4523  41.0894  41.0894  41.9355  41.9355  41.9441  41.9441
    42.9379  42.9379  43.2801  43.2801  43.5424  43.5424  44.6232  44.6232
    45.1428  45.1428  45.5949  45.5949  46.8546  46.8546  47.3338  47.3338
    48.4170  48.4170  49.3382  49.3382  49.5862  49.5862  50.1922  50.1922
    50.9560  50.9560  51.6088  51.6089  51.7550  51.7551  52.6741  52.6742
    55.3620  55.3620  56.1283  56.1286  56.9026  56.9031  56.9780  56.9782

          k =-0.5000 0.0000 0.0000 (  3722 PWs)   bands (ev):

   -23.5183 -23.5183 -23.3561 -23.3561 -23.2214 -23.2214 -22.9303 -22.9303
    -2.0861  -2.0861  -1.7811  -1.7811   3.0363   3.0363   3.7792   3.7792
     3.9811   3.9811   4.1189   4.1189   4.6322   4.6322   5.3161   5.3161
     5.4189   5.4189   5.7257   5.7257   6.1586   6.1586   6.2295   6.2295
     6.3177   6.3177   6.7010   6.7010  19.1824  19.1824  19.7355  19.7355
    20.1143  20.1143  20.2280  20.2280  20.3468  20.3468  20.5584  20.5584
    34.0207  34.0207  34.6548  34.6548  35.4210  35.4210  35.5567  35.5567
    36.0942  36.0942  36.5143  36.5143  36.8026  36.8026  37.1133  37.1133
    37.2884  37.2884  37.5264  37.5264  38.2739  38.2739  38.7899  38.7899
    39.0598  39.0598  40.1722  40.1722  41.1423  41.1423  41.4700  41.4700
    41.7026  41.7026  43.3824  43.3824  44.9266  44.9266  44.9683  44.9683
    45.7591  45.7591  46.4275  46.4275  46.7249  46.7249  47.1524  47.1524
    47.9290  47.9290  48.1962  48.1962  49.6527  49.6527  51.2576  51.2576
    51.4992  51.4992  52.2509  52.2509  52.3586  52.3586  52.8838  52.8839
    53.1682  53.1683  53.9749  53.9750  55.4184  55.4185  56.5918  56.5922

          k =-0.5000 0.0000 0.1317 (  3710 PWs)   bands (ev):

   -23.5137 -23.5137 -23.3627 -23.3627 -23.2162 -23.2162 -22.9302 -22.9302
    -2.0962  -2.0962  -1.7524  -1.7524   3.1330   3.1330   3.4103   3.4103
     3.8449   3.8449   4.4292   4.4292   4.7698   4.7698   5.1332   5.1332
     5.4726   5.4726   5.8561   5.8561   6.0484   6.0484   6.2824   6.2824
     6.3673   6.3673   6.6994   6.6994  19.2166  19.2166  19.7417  19.7417
    20.0062  20.0062  20.2518  20.2518  20.3301  20.3301  20.5257  20.5257
    34.3158  34.3158  34.3810  34.3810  35.3188  35.3188  35.6083  35.6083
    36.2779  36.2779  36.4737  36.4737  36.9978  36.9978  37.1224  37.1224
    37.3771  37.3771  37.8507  37.8507  38.3505  38.3505  38.6068  38.6068
    39.2560  39.2560  39.7195  39.7195  40.7385  40.7385  41.3034  41.3034
    42.1985  42.1985  43.6402  43.6402  44.4535  44.4535  44.7386  44.7386
    45.1688  45.1688  46.0763  46.0763  47.3196  47.3196  47.4634  47.4634
    48.1050  48.1050  48.3716  48.3716  49.5916  49.5916  50.7395  50.7395
    51.7637  51.7638  51.9494  51.9495  52.5675  52.5675  52.7294  52.7294
    53.4153  53.4154  54.1375  54.1375  55.6053  55.6054  56.4938  56.4938

          k =-0.5000 0.0000-0.2634 (  3680 PWs)   bands (ev):

   -23.5053 -23.5053 -23.3701 -23.3701 -23.2103 -23.2103 -22.9302 -22.9302
    -2.1047  -2.1047  -1.7248  -1.7248   3.2088   3.2088   3.2645   3.2645
     3.7104   3.7104   4.5174   4.5174   4.7441   4.7441   5.3252   5.3252
     5.4842   5.4842   5.7423   5.7423   6.0948   6.0948   6.2846   6.2846
     6.4261   6.4261   6.7043   6.7043  19.2638  19.2638  19.7534  19.7534
    19.8803  19.8803  20.2835  20.2835  20.3166  20.3166  20.4831  20.4831
    34.1222  34.1222  34.8743  34.8743  35.0879  35.0879  35.8815  35.8815
    35.9060  35.9060  36.6052  36.6052  37.2066  37.2066  37.2342  37.2342
    37.7245  37.7245  37.7561  37.7561  38.0323  38.0323  38.5715  38.5715
    39.5683  39.5683  39.9127  39.9127  40.6295  40.6295  40.8185  40.8185
    42.3538  42.3538  43.5194  43.5194  44.0725  44.0725  44.3440  44.3440
    45.3517  45.3517  46.2345  46.2345  46.3942  46.3942  47.8763  47.8763
    48.2580  48.2580  49.1698  49.1698  49.8931  49.8931  50.2194  50.2194
    51.8050  51.8051  52.2277  52.2278  52.5457  52.5458  52.6185  52.6185
    53.1024  53.1024  54.9078  54.9079  55.0077  55.0078  55.2821  55.2821

          k =-0.5000 0.2533 0.0000 (  3686 PWs)   bands (ev):

   -23.4504 -23.4504 -23.3743 -23.3743 -23.1738 -23.1738 -23.0253 -23.0253
    -2.1174  -2.1174  -1.9741  -1.9741   3.4518   3.4518   3.9064   3.9064
     4.3122   4.3122   4.6593   4.6593   4.7694   4.7694   5.0383   5.0383
     5.1370   5.1370   5.7505   5.7505   6.0321   6.0321   6.0962   6.0962
     6.3053   6.3053   6.3606   6.3606  19.2976  19.2976  19.5490  19.5490
    19.6878  19.6878  19.8565  19.8565  20.3216  20.3216  20.3584  20.3584
    34.6967  34.6967  35.1010  35.1010  35.7584  35.7584  35.9755  35.9755
    36.2544  36.2544  36.3497  36.3497  37.1927  37.1927  37.3888  37.3888
    38.2530  38.2530  38.4327  38.4327  38.5498  38.5498  38.8582  38.8582
    39.6803  39.6803  39.7701  39.7701  40.7485  40.7485  41.5593  41.5593
    42.3140  42.3140  42.9630  42.9630  43.8581  43.8581  44.5142  44.5142
    44.9317  44.9317  45.8128  45.8128  46.4333  46.4333  47.3651  47.3651
    48.1118  48.1118  48.4193  48.4193  48.9789  48.9789  50.0966  50.0966
    50.5480  50.5480  50.5998  50.5998  51.3214  51.3214  53.0875  53.0875
    53.6227  53.6228  55.2205  55.2206  55.7039  55.7044  56.4989  56.5000

          k =-0.5000 0.2533 0.1317 (  3692 PWs)   bands (ev):

   -23.4490 -23.4490 -23.3779 -23.3779 -23.1729 -23.1729 -23.0256 -23.0256
    -2.1178  -2.1178  -1.9573  -1.9573   3.4333   3.4333   3.7360   3.7360
     4.2756   4.2756   4.5092   4.5092   4.8965   4.8965   5.1034   5.1034
     5.3865   5.3865   5.7885   5.7885   5.9722   5.9722   6.1012   6.1012
     6.2507   6.2507   6.3682   6.3682  19.3140  19.3140  19.5368  19.5368
    19.7325  19.7325  19.8637  19.8637  20.1983  20.1983  20.3295  20.3295
    34.6576  34.6576  35.0988  35.0988  35.6415  35.6415  36.0199  36.0199
    36.2900  36.2900  36.7760  36.7760  37.3462  37.3462  37.6929  37.6929
    37.9368  37.9368  38.2769  38.2769  38.5686  38.5686  38.9696  38.9696
    39.4729  39.4729  40.1276  40.1276  40.7741  40.7741  41.5324  41.5324
    42.3572  42.3572  42.7610  42.7610  43.7300  43.7300  44.1628  44.1628
    44.9547  44.9547  45.7364  45.7364  46.7080  46.7080  47.1243  47.1243
    47.5971  47.5971  48.1427  48.1427  48.8189  48.8189  49.6357  49.6357
    50.5751  50.5751  50.8394  50.8394  51.6539  51.6539  53.2591  53.2592
    54.3132  54.3132  55.0894  55.0894  55.4592  55.4593  56.4642  56.4644

          k =-0.5000 0.2533-0.2634 (  3704 PWs)   bands (ev):

   -23.4456 -23.4456 -23.3823 -23.3823 -23.1739 -23.1739 -23.0267 -23.0267
    -2.1179  -2.1179  -1.9413  -1.9413   3.3340   3.3340   3.8978   3.8978
     3.9280   3.9280   4.4549   4.4549   5.0664   5.0664   5.2139   5.2139
     5.5211   5.5211   5.7784   5.7784   5.9405   5.9405   6.0973   6.0973
     6.2657   6.2657   6.3165   6.3165  19.3289  19.3289  19.5209  19.5209
    19.8108  19.8108  19.8803  19.8803  20.0580  20.0580  20.2773  20.2773
    34.4670  34.4670  35.3079  35.3079  35.6625  35.6625  36.0125  36.0125
    36.7641  36.7641  36.8346  36.8346  37.0385  37.0385  37.6962  37.6962
    37.9773  37.9773  38.3560  38.3560  38.6345  38.6345  39.2074  39.2074
    39.3256  39.3256  40.5056  40.5056  40.5634  40.5634  41.4982  41.4982
    41.7316  41.7316  43.3802  43.3802  43.6540  43.6540  44.1718  44.1718
    44.5545  44.5545  45.5418  45.5418  46.5564  46.5564  46.9498  46.9498
    47.3554  47.3554  47.7685  47.7685  48.6399  48.6399  49.2902  49.2902
    50.6466  50.6466  51.2310  51.2310  52.7940  52.7940  52.8040  52.8041
    54.0455  54.0456  55.6444  55.6445  55.7738  55.7739  56.5320  56.5322

     the Fermi energy is    49.1131 ev

!    total energy              =   -2040.43203439 Ry
     Harris-Foulkes estimate   =   -2040.43209961 Ry
     estimated scf accuracy    <       0.00007174 Ry

     The total energy is the sum of the following terms:

     one-electron contribution =     398.58751994 Ry
     hartree contribution      =     119.06961102 Ry
     xc contribution           =    -228.95484681 Ry
     ewald contribution        =   -2328.76300881 Ry
     smearing contrib. (-TS)   =      -0.37130972 Ry

     convergence has been achieved in  10 iterations

     Forces acting on atoms (Ry/au):

     atom    1 type  1   force =     0.00000000   -0.07871510   -0.13163043
     atom    2 type  1   force =     0.00000000    0.07871510    0.13163043
     atom    3 type  1   force =     0.00000000   -0.07871510    0.13163043
     atom    4 type  1   force =     0.00000000    0.07871510   -0.13163043
     atom    5 type  1   force =     0.00000000    0.16812410   -0.24768325
     atom    6 type  1   force =     0.00000000   -0.16812410    0.24768325
     atom    7 type  1   force =     0.00000000    0.16812410    0.24768325
     atom    8 type  1   force =     0.00000000   -0.16812410   -0.24768325
     atom    9 type  2   force =     0.00000000   -0.18656612   -0.06340556
     atom   10 type  2   force =     0.00000000    0.18656612    0.06340556
     atom   11 type  2   force =     0.00000000   -0.18656612    0.06340556
     atom   12 type  2   force =     0.00000000    0.18656612   -0.06340556

     Total force =     0.779647     Total SCF correction =     0.000000


     entering subroutine stress ...

          total   stress  (Ry/bohr**3)                   (kbar)     P= 6725.58
   0.04762199   0.00000000   0.00000000       7005.44      0.00      0.00
   0.00000000   0.04313391   0.00000000          0.00   6345.22      0.00
   0.00000000   0.00000000   0.04640277          0.00      0.00   6826.08


     BFGS Geometry Optimization

     number of scf cycles    =   1
     number of bfgs steps    =   0

     enthalpy new            =   -2040.4320343860 Ry

     new trust radius        =       0.5000000000 bohr
     new conv_thr            =       0.0001000000 Ry

     new unit-cell volume =   1091.45066 a.u.^3 (   161.73630 Ang^3 )

CELL_PARAMETERS (alat=  7.01510508)
   1.085136619   0.000000000   0.000000000
   0.000000000   1.417441287   0.000000000
   0.000000000   0.000000000   2.055474376

ATOMIC_POSITIONS (crystal)
Co       0.750000000   0.825791254   0.435029048
Co       0.250000000   0.174208746   0.564970952
Co       0.750000000   0.325791254   0.064970952
Co       0.250000000   0.674208746   0.935029048
Co       0.250000000   0.538388329   0.281014759
Co       0.750000000   0.461611671   0.718985241
Co       0.250000000   0.038388329   0.218985241
Co       0.750000000   0.961611671   0.781014759
Si       0.250000000   0.201408814   0.893259465
Si       0.750000000   0.798591186   0.106740535
Si       0.250000000   0.701408814   0.606740535
Si       0.750000000   0.298591186   0.393259465



     Writing output data file Prototype-La-oP12-Co2Si.save
     NEW-OLD atomic charge density approx. for the potential
     NEW k-points:
        k(    1) = (   0.0000000   0.0000000   0.0000000), wk =   0.0833333
        k(    2) = (   0.0000000   0.0000000   0.1216264), wk =   0.1666667
        k(    3) = (   0.0000000   0.0000000  -0.2432529), wk =   0.0833333
        k(    4) = (   0.0000000   0.2351655   0.0000000), wk =   0.1666667
        k(    5) = (   0.0000000   0.2351655   0.1216264), wk =   0.3333333
        k(    6) = (   0.0000000   0.2351655  -0.2432529), wk =   0.1666667
        k(    7) = (  -0.4607715   0.0000000   0.0000000), wk =   0.0833333
        k(    8) = (  -0.4607715   0.0000000   0.1216264), wk =   0.1666667
        k(    9) = (  -0.4607715   0.0000000  -0.2432529), wk =   0.0833333
        k(   10) = (  -0.4607715   0.2351655   0.0000000), wk =   0.1666667
        k(   11) = (  -0.4607715   0.2351655   0.1216264), wk =   0.3333333
        k(   12) = (  -0.4607715   0.2351655  -0.2432529), wk =   0.1666667

     total cpu time spent up to now is      143.5 secs

     Self-consistent Calculation

     iteration #  1     ecut=    40.00 Ry     beta=0.70
     CG style diagonalization
     c_bands:  1 eigenvalues not converged
     c_bands:  3 eigenvalues not converged
     c_bands:  1 eigenvalues not converged
     ethr =  1.00E-06,  avg # of iterations = 21.7

     total cpu time spent up to now is      187.8 secs

     total energy              =   -2037.68082330 Ry
     Harris-Foulkes estimate   =   -2057.41379073 Ry
     estimated scf accuracy    <      25.51916651 Ry

     iteration #  2     ecut=    40.00 Ry     beta=0.70
     CG style diagonalization
     ethr =  1.00E-02,  avg # of iterations =  3.9

     total cpu time spent up to now is      196.4 secs

     total energy              =   -2040.73273432 Ry
     Harris-Foulkes estimate   =   -2051.63376506 Ry
     estimated scf accuracy    <      19.19366639 Ry

     iteration #  3     ecut=    40.00 Ry     beta=0.70
     CG style diagonalization
     ethr =  9.60E-03,  avg # of iterations =  3.5

     total cpu time spent up to now is      203.7 secs

     total energy              =   -2046.38057710 Ry
     Harris-Foulkes estimate   =   -2047.78477018 Ry
     estimated scf accuracy    <       2.99056648 Ry

     iteration #  4     ecut=    40.00 Ry     beta=0.70
     CG style diagonalization
     ethr =  1.50E-03,  avg # of iterations =  3.4

     total cpu time spent up to now is      211.4 secs

     total energy              =   -2046.85319304 Ry
     Harris-Foulkes estimate   =   -2046.91275312 Ry
     estimated scf accuracy    <       0.13907746 Ry

     iteration #  5     ecut=    40.00 Ry     beta=0.70
     CG style diagonalization
     ethr =  6.95E-05,  avg # of iterations =  3.9

     total cpu time spent up to now is      220.3 secs

     total energy              =   -2046.88378818 Ry
     Harris-Foulkes estimate   =   -2046.89023531 Ry
     estimated scf accuracy    <       0.01360936 Ry

     iteration #  6     ecut=    40.00 Ry     beta=0.70
     CG style diagonalization
     c_bands:  1 eigenvalues not converged
     c_bands:  1 eigenvalues not converged
     c_bands:  1 eigenvalues not converged
     ethr =  6.80E-06,  avg # of iterations =  4.0

     total cpu time spent up to now is      229.4 secs

     total energy              =   -2046.88832185 Ry
     Harris-Foulkes estimate   =   -2046.88882445 Ry
     estimated scf accuracy    <       0.00125619 Ry

     iteration #  7     ecut=    40.00 Ry     beta=0.70
     CG style diagonalization
     c_bands:  1 eigenvalues not converged
     ethr =  6.28E-07,  avg # of iterations =  3.8

     total cpu time spent up to now is      237.4 secs

     total energy              =   -2046.88852025 Ry
     Harris-Foulkes estimate   =   -2046.88866283 Ry
     estimated scf accuracy    <       0.00030646 Ry

     iteration #  8     ecut=    40.00 Ry     beta=0.70
     CG style diagonalization
     ethr =  1.53E-07,  avg # of iterations =  3.5

     total cpu time spent up to now is      244.4 secs

     End of self-consistent calculation

          k = 0.0000 0.0000 0.0000 (  3675 PWs)   bands (ev):

   -32.8125 -32.6969 -32.6626 -32.6435 -32.5532 -32.4620 -32.3748 -32.3700
   -11.2154 -11.2010 -11.0959 -11.0700  -4.7014  -4.6260  -4.4820  -4.4123
    -4.3638  -4.2594  -4.1846  -4.1219  -4.1050  -3.9921  -3.8183  -3.7447
    -3.7440  -3.7217  -3.6982  -3.6723  -3.5362  -3.4636  -3.4276  -3.4140
    -3.2839  -3.2209  -2.9272  -2.8525   9.8071   9.9314   9.9865  10.0541
    10.0808  10.2309  10.2645  10.2744  10.3375  10.4610  10.5913  10.7879
    25.7555  26.0319  26.0896  26.5454  26.5756  26.5875  26.7565  27.0687
    27.1776  27.9078  28.0877  28.1662  28.4815  28.6934  28.9295  29.0217
    29.3274  29.3915  29.6877  30.2616  30.4925  30.7677  30.8703  31.1000
    31.2379  31.2558  31.3203  31.5873  31.7177  31.8433  32.1249  32.2737
    32.4161  32.6487  32.8455  32.9059  33.4707  33.7016  33.7304  34.6672
    34.8065  35.2310  35.3042  35.4179  35.8522  36.5110  36.6890  37.0497
    37.0937  37.4343  37.9658  38.0884  38.9000  39.2153  39.2513  39.3235
    40.0333  40.3365  40.7296  40.7392  40.7834  41.1648  41.3285  41.6748
    41.8525  44.0572  44.1838  44.7479  44.9164  45.4000  45.4426  45.6207

          k = 0.0000 0.0000 0.1216 (  3675 PWs)   bands (ev):

   -32.7985 -32.7238 -32.6509 -32.6502 -32.5372 -32.4818 -32.3754 -32.3588
   -11.1994 -11.1802 -11.1140 -11.0880  -4.6603  -4.6089  -4.4984  -4.4123
    -4.4067  -4.3397  -4.2341  -4.0603  -4.0550  -4.0519  -3.8481  -3.8378
    -3.7283  -3.6975  -3.6601  -3.6597  -3.5169  -3.4532  -3.4215  -3.3506
    -3.2878  -3.1835  -2.9190  -2.8715   9.8428   9.9456   9.9718  10.0080
    10.0956  10.2002  10.2813  10.2879  10.3374  10.4168  10.6250  10.7566
    25.8639  25.8837  26.2341  26.2542  26.2559  26.6545  27.0492  27.2225
    27.5100  27.8072  28.4299  28.5142  28.7226  28.7522  29.0975  29.1305
    29.2219  29.3173  29.6939  30.2978  30.3528  30.6360  30.6376  30.6425
    30.7397  30.8074  31.3271  31.5501  31.6319  31.7319  31.7828  32.0876
    32.6961  32.7051  33.1002  33.3210  33.6276  33.9816  34.1626  34.2909
    34.4244  34.5420  35.4848  35.5312  35.9973  36.2034  36.6586  36.9511
    37.1203  37.8900  38.0203  38.4882  38.7143  39.0328  39.2820  39.4662
    39.8477  40.0570  40.0901  40.4765  40.9055  41.4168  41.4357  41.9266
    43.7139  43.9066  44.3351  44.4863  45.3960  45.7681  45.9477  45.9895

          k = 0.0000 0.0000-0.2433 (  3690 PWs)   bands (ev):

   -32.7752 -32.7752 -32.6503 -32.6503 -32.5044 -32.5044 -32.3721 -32.3721
   -11.1577 -11.1577 -11.1332 -11.1332  -4.5543  -4.5543  -4.5535  -4.5535
    -4.3803  -4.3803  -4.2179  -4.2179  -3.9525  -3.9525  -3.9115  -3.9115
    -3.6808  -3.6808  -3.6772  -3.6772  -3.4502  -3.4502  -3.4415  -3.4415
    -3.2012  -3.2012  -2.9014  -2.9014   9.9231   9.9231   9.9611   9.9611
    10.1279  10.1279  10.3168  10.3168  10.3381  10.3381  10.6876  10.6876
    25.9247  25.9247  25.9417  25.9417  26.5404  26.5404  27.7143  27.7143
    27.8596  27.8596  28.1564  28.1564  28.9260  28.9260  29.2730  29.2730
    29.3318  29.3318  29.7567  29.7567  30.2247  30.2247  30.4503  30.4503
    30.4868  30.4868  31.6553  31.6553  31.7087  31.7087  32.0239  32.0239
    32.4976  32.4976  33.0510  33.0510  33.7333  33.7333  34.3193  34.3193
    34.7412  34.7412  35.3186  35.3186  35.8169  35.8169  36.7375  36.7375
    38.3305  38.3305  38.4418  38.4418  38.5070  38.5070  39.3240  39.3240
    39.4123  39.4123  40.0356  40.0356  41.2569  41.2569  42.6680  42.6680
    43.7335  43.7335  45.2861  45.2861  45.3266  45.3266  46.3130  46.3130

          k = 0.0000 0.2352 0.0000 (  3664 PWs)   bands (ev):

   -32.7697 -32.7133 -32.6542 -32.6478 -32.5082 -32.4481 -32.4198 -32.3918
   -11.2595 -11.2527 -11.0802 -11.0675  -4.5623  -4.4562  -4.3136  -4.3107
    -4.2721  -4.2496  -4.2122  -4.1709  -4.0827  -3.9874  -3.8952  -3.8081
    -3.7441  -3.6762  -3.5831  -3.5601  -3.4525  -3.4458  -3.4401  -3.3856
    -3.3479  -3.2618  -3.1785  -3.0904   9.8654   9.9029   9.9126   9.9485
    10.0270  10.0621  10.1889  10.2121  10.2812  10.3553  10.5331  10.6275
    26.4714  26.5969  26.7265  26.7411  27.0235  27.0979  27.3832  27.5670
    27.6231  27.7990  28.2877  28.5698  28.5852  28.6349  28.7254  29.2546
    29.4953  29.6405  29.6552  29.7777  30.0056  30.6902  30.7988  30.9387
    31.0356  31.1775  31.3727  31.5201  31.6224  31.9660  32.1546  32.4841
    32.5759  32.7448  32.9600  33.0457  33.4677  33.7264  33.8915  34.4499
    34.5862  35.0092  35.1315  35.5691  35.6140  36.2123  36.3419  36.4635
    36.7818  37.2522  37.6486  38.2229  38.2311  38.3443  38.7787  39.0202
    39.1437  39.2613  39.4591  40.0306  40.0534  40.1399  41.2874  41.4021
    41.7133  41.8380  45.0713  45.2848  45.3639  46.3352  46.4582  46.5068

          k = 0.0000 0.2352 0.1216 (  3669 PWs)   bands (ev):

   -32.7635 -32.7196 -32.6656 -32.6513 -32.4969 -32.4572 -32.4135 -32.3990
   -11.2472 -11.2403 -11.0919 -11.0810  -4.5334  -4.4817  -4.4015  -4.3514
    -4.3141  -4.1998  -4.1607  -4.1241  -4.0831  -4.0327  -3.9369  -3.7974
    -3.7306  -3.6464  -3.5776  -3.5768  -3.4868  -3.4681  -3.4485  -3.3755
    -3.2941  -3.2331  -3.1603  -3.1011   9.8904   9.8992   9.9210   9.9335
    10.0197  10.0285  10.1973  10.2197  10.2452  10.3376  10.5542  10.6251
    26.3742  26.4744  26.5824  26.8547  26.9365  27.2700  27.4815  27.6233
    27.9355  28.0357  28.4179  28.4416  28.4831  28.8015  28.9185  29.3442
    29.5320  29.6240  29.7459  29.8313  30.0788  30.4077  30.6521  30.6874
    30.8444  31.3125  31.4249  31.4430  31.6921  31.8642  32.2832  32.3021
    32.3903  32.6253  32.7885  33.1014  33.5530  33.6953  33.7093  34.2644
    34.4774  34.7752  34.9601  35.4241  35.4828  36.0866  36.6322  36.9723
    37.0360  37.3538  37.4013  37.9945  38.0656  38.5610  38.6790  39.0105
    39.1950  39.3851  39.6078  39.6982  40.1149  40.3497  40.9144  41.6507
    42.1526  42.7139  45.1040  45.4279  45.4347  45.9538  46.4734  46.5324

          k = 0.0000 0.2352-0.2433 (  3666 PWs)   bands (ev):

   -32.7418 -32.7418 -32.6622 -32.6622 -32.4700 -32.4700 -32.4072 -32.4072
   -11.2284 -11.2284 -11.1014 -11.1014  -4.4736  -4.4736  -4.4507  -4.4507
    -4.2510  -4.2510  -4.1169  -4.1169  -4.0764  -4.0764  -3.8772  -3.8772
    -3.6324  -3.6324  -3.5987  -3.5987  -3.4962  -3.4962  -3.4218  -3.4218
    -3.2216  -3.2216  -3.1278  -3.1278   9.9058   9.9058   9.9561   9.9561
     9.9757   9.9757  10.2023  10.2023  10.2814  10.2814  10.5972  10.5972
    26.3011  26.3011  26.5836  26.5836  27.3689  27.3689  27.8656  27.8656
    27.8897  27.8897  28.5525  28.5525  28.7163  28.7163  29.1891  29.1891
    29.6624  29.6624  29.6861  29.6861  30.0680  30.0680  30.7370  30.7370
    30.8045  30.8045  31.4360  31.4360  31.9698  31.9698  32.0116  32.0116
    32.5283  32.5283  33.1924  33.1924  33.3468  33.3468  33.7472  33.7472
    34.4784  34.4784  35.0109  35.0109  35.8402  35.8402  36.8109  36.8109
    37.3963  37.3963  37.8986  37.8986  38.0341  38.0341  38.7161  38.7161
    39.5410  39.5410  40.0213  40.0213  40.0468  40.0468  40.9081  40.9081
    43.7188  43.7188  44.8198  44.8199  45.9848  45.9849  46.0721  46.0723

          k =-0.4608 0.0000 0.0000 (  3722 PWs)   bands (ev):

   -32.7051 -32.7051 -32.6797 -32.6797 -32.5576 -32.5576 -32.3888 -32.3888
   -11.2649 -11.2649 -11.1617 -11.1617  -4.8245  -4.8245  -4.4677  -4.4677
    -4.4400  -4.4400  -4.3062  -4.3062  -4.0699  -4.0699  -3.7328  -3.7328
    -3.6795  -3.6795  -3.6549  -3.6549  -3.3380  -3.3380  -3.2884  -3.2884
    -3.2069  -3.2069  -2.9194  -2.9194   9.9051   9.9051  10.1315  10.1315
    10.2685  10.2685  10.4445  10.4445  10.5006  10.5006  10.5654  10.5654
    26.4031  26.4031  26.8452  26.8452  27.4933  27.4933  27.8131  27.8131
    28.0885  28.0885  28.2786  28.2786  28.4757  28.4757  28.8791  28.8791
    29.0187  29.0187  29.2422  29.2422  29.7107  29.7107  29.7966  29.7966
    30.4014  30.4014  30.9167  30.9167  31.6281  31.6281  31.9741  31.9741
    32.1162  32.1162  33.4005  33.4005  34.1092  34.1092  34.8421  34.8421
    34.8421  34.8421  35.8548  35.8548  36.0547  36.0547  36.6799  36.6799
    36.9698  36.9698  37.5836  37.5836  38.0097  38.0097  39.6088  39.6088
    39.7439  39.7439  39.8913  39.8913  40.7493  40.7493  41.2356  41.2356
    41.3768  41.3769  41.8598  41.8598  44.6506  44.6507  45.9538  45.9538

          k =-0.4608 0.0000 0.1216 (  3710 PWs)   bands (ev):

   -32.7030 -32.7030 -32.6756 -32.6756 -32.5522 -32.5522 -32.3869 -32.3869
   -11.2659 -11.2659 -11.1584 -11.1584  -4.7854  -4.7854  -4.6448  -4.6448
    -4.4014  -4.4014  -4.2134  -4.2134  -4.0002  -4.0002  -3.8049  -3.8049
    -3.7470  -3.7470  -3.5501  -3.5501  -3.3660  -3.3660  -3.2447  -3.2447
    -3.2057  -3.2057  -2.9226  -2.9226   9.8982   9.8982  10.1644  10.1644
    10.2760  10.2760  10.4068  10.4068  10.5010  10.5010  10.5585  10.5585
    26.5991  26.5991  26.6469  26.6469  27.6258  27.6258  27.6512  27.6512
    28.1517  28.1517  28.3891  28.3891  28.5201  28.5201  28.8918  28.8918
    29.0849  29.0849  29.4412  29.4412  29.6549  29.6549  29.9532  29.9532
    30.3178  30.3178  30.6798  30.6798  31.5850  31.5850  31.8095  31.8095
    32.4080  32.4080  33.4184  33.4184  33.4517  33.4517  34.4498  34.4498
    34.7264  34.7264  35.5554  35.5554  36.6761  36.6761  36.9725  36.9725
    37.0585  37.0585  37.6606  37.6606  38.1227  38.1227  39.1635  39.1635
    39.9454  39.9454  40.3555  40.3555  40.5393  40.5393  40.8672  40.8672
    41.4093  41.4093  42.6091  42.6092  44.4301  44.4302  44.9885  44.9885

          k =-0.4608 0.0000-0.2433 (  3680 PWs)   bands (ev):

   -32.6889 -32.6889 -32.6729 -32.6729 -32.5398 -32.5398 -32.3861 -32.3861
   -11.2664 -11.2664 -11.1552 -11.1552  -4.7438  -4.7438  -4.7079  -4.7079
    -4.4556  -4.4556  -4.1145  -4.1145  -3.9770  -3.9770  -3.8117  -3.8117
    -3.7403  -3.7403  -3.5614  -3.5614  -3.3650  -3.3650  -3.2081  -3.2081
    -3.1914  -3.1914  -2.9135  -2.9135   9.8943   9.8943  10.2002  10.2002
    10.3165  10.3165  10.3342  10.3342  10.5053  10.5053  10.5529  10.5529
    26.4438  26.4438  27.1378  27.1378  27.2008  27.2008  27.7553  27.7553
    28.0482  28.0482  28.5310  28.5310  28.7195  28.7195  29.0797  29.0797
    29.1338  29.1338  29.3991  29.3991  29.6128  29.6128  29.7587  29.7587
    30.5651  30.5651  30.9861  30.9861  31.2352  31.2352  31.4141  31.4141
    32.6797  32.6797  32.9606  32.9606  33.6249  33.6249  34.0072  34.0072
    34.7601  34.7601  35.2420  35.2420  36.5304  36.5304  37.1877  37.1877
    37.3375  37.3375  38.2057  38.2057  38.2173  38.2173  38.6261  38.6261
    40.1040  40.1040  40.5264  40.5264  40.6037  40.6037  41.0710  41.0711
    41.5430  41.5430  43.0173  43.0173  43.2053  43.2053  45.3339  45.3339

          k =-0.4608 0.2352 0.0000 (  3686 PWs)   bands (ev):

   -32.6850 -32.6850 -32.6791 -32.6791 -32.5095 -32.5095 -32.4267 -32.4267
   -11.2640 -11.2640 -11.2129 -11.2129  -4.5998  -4.5998  -4.4196  -4.4196
    -4.3266  -4.3266  -4.0851  -4.0851  -4.0060  -4.0060  -3.8756  -3.8756
    -3.7912  -3.7912  -3.5947  -3.5947  -3.3432  -3.3432  -3.3255  -3.3255
    -3.2164  -3.2164  -3.1396  -3.1396   9.9192   9.9192  10.0126  10.0126
    10.2703  10.2703  10.3123  10.3123  10.4269  10.4269  10.4658  10.4658
    27.0286  27.0286  27.3733  27.3733  27.8340  27.8340  27.8732  27.8732
    28.2200  28.2200  28.2558  28.2558  28.9589  28.9589  29.1353  29.1353
    29.6646  29.6646  29.8037  29.8037  29.8307  29.8307  30.0261  30.0261
    30.4242  30.4242  30.5683  30.5683  31.4055  31.4055  31.9047  31.9047
    32.3828  32.3828  32.9664  32.9664  33.2946  33.2946  33.9750  33.9750
    34.5581  34.5581  35.3454  35.3454  36.0847  36.0847  36.3053  36.3053
    37.2722  37.2722  37.3885  37.3885  37.8813  37.8813  38.6159  38.6159
    39.2457  39.2457  39.2590  39.2590  39.6093  39.6093  40.5527  40.5527
    42.6568  42.6568  42.8382  42.8383  43.9701  43.9701  44.9450  44.9450

          k =-0.4608 0.2352 0.1216 (  3692 PWs)   bands (ev):

   -32.6897 -32.6897 -32.6790 -32.6790 -32.5099 -32.5099 -32.4265 -32.4265
   -11.2638 -11.2638 -11.2113 -11.2113  -4.6230  -4.6230  -4.4653  -4.4653
    -4.2689  -4.2689  -4.1825  -4.1825  -3.9563  -3.9563  -3.9127  -3.9127
    -3.7047  -3.7047  -3.5363  -3.5363  -3.3610  -3.3610  -3.3480  -3.3480
    -3.2289  -3.2289  -3.1481  -3.1481   9.9161   9.9161  10.0370  10.0370
    10.2598  10.2598  10.2922  10.2922  10.4183  10.4183  10.4595  10.4595
    27.0551  27.0551  27.2802  27.2802  27.7305  27.7305  28.1354  28.1354
    28.2285  28.2285  28.5248  28.5248  28.9522  28.9522  29.2204  29.2204
    29.3550  29.3550  29.6938  29.6938  29.8898  29.8898  30.0935  30.0935
    30.3889  30.3889  30.8378  30.8378  31.4711  31.4711  31.8195  31.8195
    32.4846  32.4846  32.6954  32.6954  33.2213  33.2213  33.8712  33.8712
    34.4077  34.4077  34.9378  34.9378  36.2319  36.2319  36.5199  36.5199
    37.0505  37.0505  37.2639  37.2639  37.7170  37.7170  38.5143  38.5143
    39.1044  39.1044  39.5098  39.5098  39.8163  39.8163  40.9177  40.9177
    42.6630  42.6630  43.2225  43.2226  43.8693  43.8693  45.1325  45.1325

          k =-0.4608 0.2352-0.2433 (  3704 PWs)   bands (ev):

   -32.6908 -32.6908 -32.6820 -32.6820 -32.5155 -32.5155 -32.4286 -32.4286
   -11.2641 -11.2641 -11.2098 -11.2098  -4.6655  -4.6655  -4.3785  -4.3785
    -4.3768  -4.3768  -4.2236  -4.2236  -3.9542  -3.9542  -3.8905  -3.8905
    -3.6422  -3.6422  -3.4544  -3.4544  -3.4316  -3.4316  -3.3667  -3.3667
    -3.2233  -3.2233  -3.1590  -3.1590   9.9104   9.9104  10.0643  10.0643
    10.2529  10.2529  10.2648  10.2648  10.4099  10.4099  10.4505  10.4505
    26.8992  26.8992  27.5182  27.5182  27.6954  27.6954  28.2255  28.2255
    28.4053  28.4053  28.5814  28.5814  28.7841  28.7841  29.2866  29.2866
    29.3784  29.3784  29.6564  29.6564  29.7288  29.7288  30.2274  30.2274
    30.4586  30.4586  31.2253  31.2253  31.2483  31.2483  31.7391  31.7391
    31.9597  31.9597  33.1093  33.1093  33.2625  33.2625  33.8242  33.8242
    34.2273  34.2273  34.5607  34.5607  36.0199  36.0199  36.5960  36.5960
    36.9912  36.9912  37.0561  37.0561  37.8731  37.8731  38.1635  38.1635
    39.0924  39.0924  39.6738  39.6738  40.7039  40.7039  40.7514  40.7514
    42.6384  42.6384  43.2817  43.2818  43.9956  43.9956  45.8271  45.8272

     the Fermi energy is    37.9722 ev

!    total energy              =   -2046.88857632 Ry
     Harris-Foulkes estimate   =   -2046.88858914 Ry
     estimated scf accuracy    <       0.00001400 Ry

     The total energy is the sum of the following terms:

     one-electron contribution =     165.60040771 Ry
     hartree contribution      =     162.46654601 Ry
     xc contribution           =    -221.40104817 Ry
     ewald contribution        =   -2153.06078935 Ry
     smearing contrib. (-TS)   =      -0.49369251 Ry

     convergence has been achieved in   8 iterations

     Forces acting on atoms (Ry/au):

     atom    1 type  1   force =     0.00000000   -0.02733758   -0.04233680
     atom    2 type  1   force =     0.00000000    0.02733758    0.04233680
     atom    3 type  1   force =     0.00000000   -0.02733758    0.04233680
     atom    4 type  1   force =     0.00000000    0.02733758   -0.04233680
     atom    5 type  1   force =     0.00000000    0.10398770   -0.13553519
     atom    6 type  1   force =     0.00000000   -0.10398770    0.13553519
     atom    7 type  1   force =     0.00000000    0.10398770    0.13553519
     atom    8 type  1   force =     0.00000000   -0.10398770   -0.13553519
     atom    9 type  2   force =     0.00000000   -0.09119872   -0.02328721
     atom   10 type  2   force =     0.00000000    0.09119872    0.02328721
     atom   11 type  2   force =     0.00000000   -0.09119872    0.02328721
     atom   12 type  2   force =     0.00000000    0.09119872   -0.02328721

     Total force =     0.402902     Total SCF correction =     0.000000


     entering subroutine stress ...

          total   stress  (Ry/bohr**3)                   (kbar)     P= 2157.95
   0.01529041   0.00000000   0.00000000       2249.30      0.00      0.00
   0.00000000   0.01368560   0.00000000          0.00   2013.22      0.00
   0.00000000   0.00000000   0.01503231          0.00      0.00   2211.33


     number of scf cycles    =   2
     number of bfgs steps    =   1

     enthalpy old            =   -2040.4320343860 Ry
     enthalpy new            =   -2046.8885763201 Ry

     CASE: enthalpy_new < enthalpy_old

     small trust_radius: resetting bfgs history

     new trust radius        =       2.5257544633 bohr
     new conv_thr            =       0.0001000000 Ry

     new unit-cell volume =   2785.79684 a.u.^3 (   412.81250 Ang^3 )

CELL_PARAMETERS (alat=  7.01510508)
   1.499941162   0.000000000   0.000000000
   0.000000000   1.902404598   0.000000000
   0.000000000   0.000000000   2.827937380

ATOMIC_POSITIONS (crystal)
Co       0.750000000   0.823041962   0.432092941
Co       0.250000000   0.176958038   0.567907059
Co       0.750000000   0.323041962   0.067907059
Co       0.250000000   0.676958038   0.932092941
Co       0.250000000   0.548846187   0.271615236
Co       0.750000000   0.451153813   0.728384764
Co       0.250000000   0.048846187   0.228384764
Co       0.750000000   0.951153813   0.771615236
Si       0.250000000   0.192237122   0.891644471
Si       0.750000000   0.807762878   0.108355529
Si       0.250000000   0.692237122   0.608355529
Si       0.750000000   0.307762878   0.391644471



     Writing output data file Prototype-La-oP12-Co2Si.save
     NEW-OLD atomic charge density approx. for the potential
     NEW k-points:
        k(    1) = (   0.0000000   0.0000000   0.0000000), wk =   0.0833333
        k(    2) = (   0.0000000   0.0000000   0.0884037), wk =   0.1666667
        k(    3) = (   0.0000000   0.0000000  -0.1768073), wk =   0.0833333
        k(    4) = (   0.0000000   0.1752168   0.0000000), wk =   0.1666667
        k(    5) = (   0.0000000   0.1752168   0.0884037), wk =   0.3333333
        k(    6) = (   0.0000000   0.1752168  -0.1768073), wk =   0.1666667
        k(    7) = (  -0.3333464   0.0000000   0.0000000), wk =   0.0833333
        k(    8) = (  -0.3333464   0.0000000   0.0884037), wk =   0.1666667
        k(    9) = (  -0.3333464   0.0000000  -0.1768073), wk =   0.0833333
        k(   10) = (  -0.3333464   0.1752168   0.0000000), wk =   0.1666667
        k(   11) = (  -0.3333464   0.1752168   0.0884037), wk =   0.3333333
        k(   12) = (  -0.3333464   0.1752168  -0.1768073), wk =   0.1666667

     total cpu time spent up to now is      248.3 secs

     Self-consistent Calculation

     iteration #  1     ecut=    40.00 Ry     beta=0.70
     CG style diagonalization
     c_bands:  2 eigenvalues not converged
     c_bands:  2 eigenvalues not converged
     c_bands:  3 eigenvalues not converged
     c_bands:  4 eigenvalues not converged
     c_bands:  2 eigenvalues not converged
     ethr =  1.00E-06,  avg # of iterations = 27.9

     total cpu time spent up to now is      303.5 secs

     total energy              =   -1949.99285649 Ry
     Harris-Foulkes estimate   =   -2217.10055265 Ry
     estimated scf accuracy    <     348.55739665 Ry

     iteration #  2     ecut=    40.00 Ry     beta=0.70
     CG style diagonalization
     ethr =  1.00E-02,  avg # of iterations =  6.4

     total cpu time spent up to now is      317.1 secs

     total energy              =   -2018.98457732 Ry
     Harris-Foulkes estimate   =   -2052.36126315 Ry
     estimated scf accuracy    <      50.56448279 Ry

     iteration #  3     ecut=    40.00 Ry     beta=0.70
     CG style diagonalization
     ethr =  1.00E-02,  avg # of iterations =  4.4

     total cpu time spent up to now is      326.3 secs

     total energy              =   -2037.52167754 Ry
     Harris-Foulkes estimate   =   -2044.57989829 Ry
     estimated scf accuracy    <      28.98046526 Ry

     iteration #  4     ecut=    40.00 Ry     beta=0.70
     CG style diagonalization
     ethr =  1.00E-02,  avg # of iterations =  3.2

     total cpu time spent up to now is      333.3 secs

     total energy              =   -2036.41880783 Ry
     Harris-Foulkes estimate   =   -2038.85367010 Ry
     estimated scf accuracy    <       9.45124055 Ry

     iteration #  5     ecut=    40.00 Ry     beta=0.70
     CG style diagonalization
     ethr =  4.73E-03,  avg # of iterations =  3.1

     total cpu time spent up to now is      340.0 secs

     total energy              =   -2036.90411060 Ry
     Harris-Foulkes estimate   =   -2037.16068709 Ry
     estimated scf accuracy    <       1.54879665 Ry

     iteration #  6     ecut=    40.00 Ry     beta=0.70
     CG style diagonalization
     ethr =  7.74E-04,  avg # of iterations =  3.8

     total cpu time spent up to now is      348.9 secs

     total energy              =   -2037.14699201 Ry
     Harris-Foulkes estimate   =   -2037.15338045 Ry
     estimated scf accuracy    <       0.20477294 Ry

     iteration #  7     ecut=    40.00 Ry     beta=0.70
     CG style diagonalization
     ethr =  1.02E-04,  avg # of iterations =  3.8

     total cpu time spent up to now is      357.5 secs

     total energy              =   -2037.04479501 Ry
     Harris-Foulkes estimate   =   -2037.23363962 Ry
     estimated scf accuracy    <       0.79348941 Ry

     iteration #  8     ecut=    40.00 Ry     beta=0.70
     CG style diagonalization
     ethr =  1.02E-04,  avg # of iterations =  3.5

     total cpu time spent up to now is      365.3 secs

     total energy              =   -2037.13074289 Ry
     Harris-Foulkes estimate   =   -2037.13544307 Ry
     estimated scf accuracy    <       0.02054734 Ry

     iteration #  9     ecut=    40.00 Ry     beta=0.70
     CG style diagonalization
     c_bands:  1 eigenvalues not converged
     ethr =  1.03E-05,  avg # of iterations =  3.8

     total cpu time spent up to now is      373.3 secs

     total energy              =   -2037.13237684 Ry
     Harris-Foulkes estimate   =   -2037.13844971 Ry
     estimated scf accuracy    <       0.04462746 Ry

     iteration # 10     ecut=    40.00 Ry     beta=0.70
     CG style diagonalization
     c_bands:  1 eigenvalues not converged
     ethr =  1.03E-05,  avg # of iterations =  3.0

     total cpu time spent up to now is      379.3 secs

     total energy              =   -2037.13131104 Ry
     Harris-Foulkes estimate   =   -2037.13408350 Ry
     estimated scf accuracy    <       0.00794082 Ry

     iteration # 11     ecut=    40.00 Ry     beta=0.70
     CG style diagonalization
     ethr =  3.97E-06,  avg # of iterations =  3.5

     total cpu time spent up to now is      386.4 secs

     total energy              =   -2037.13278353 Ry
     Harris-Foulkes estimate   =   -2037.13397197 Ry
     estimated scf accuracy    <       0.00516054 Ry

     iteration # 12     ecut=    40.00 Ry     beta=0.70
     CG style diagonalization
     ethr =  2.58E-06,  avg # of iterations =  3.0

     total cpu time spent up to now is      392.4 secs

     End of self-consistent calculation

          k = 0.0000 0.0000 0.0000 (  3675 PWs)   bands (ev):

   -52.3677 -52.3112 -52.3072 -52.2349 -52.1708 -52.1184 -52.0559 -51.9976
   -36.1031 -36.0985 -36.0807 -36.0709 -26.3865 -26.3843 -26.3820 -26.3809
   -26.3569 -26.3513 -26.3510 -26.3486 -26.3476 -26.3464 -26.3416 -26.3409
   -26.2860 -26.2854 -26.2765 -26.2764 -26.2743 -26.2729 -26.2426 -26.2414
   -26.2271 -26.2249 -26.1883 -26.1873 -14.0844 -14.0341 -14.0292 -14.0252
   -14.0093 -14.0083 -14.0056 -14.0048 -13.9972 -13.9921 -13.9836 -13.9602
     7.4284   7.8289   8.0202   8.0389   8.0393   8.0679   8.0797   8.0860
     8.0914   8.1066   8.1741   8.3546   8.3620   8.3878   8.4777   8.5512
     8.6183   8.7154   8.7184   8.7534   8.7704   8.8481   8.9050   8.9933
     9.0012   9.0595   9.0922   9.1281   9.1759   9.2407   9.2555   9.2632
     9.3143   9.3598   9.3923   9.4921   9.5781   9.7281   9.8171   9.8756
     9.8850   9.8862  10.1035  10.1307  10.5717  10.9242  10.9543  10.9824
    11.0658  11.2271  11.3566  11.5421  11.5694  11.6014  11.6140  11.6690
    11.7737  12.0389  12.0639  12.0829  12.1483  12.1554  12.1696  12.6726
    13.1706  13.7603  14.0059  14.1298  14.8843  15.1438  16.6781  16.7908

          k = 0.0000 0.0000 0.0884 (  3675 PWs)   bands (ev):

   -52.3704 -52.3412 -52.3085 -52.2356 -52.1264 -52.1230 -52.1001 -51.9531
   -36.1174 -36.1020 -36.0852 -36.0435 -26.3861 -26.3835 -26.3823 -26.3818
   -26.3558 -26.3528 -26.3499 -26.3497 -26.3482 -26.3479 -26.3429 -26.3412
   -26.2863 -26.2858 -26.2774 -26.2765 -26.2734 -26.2720 -26.2429 -26.2421
   -26.2268 -26.2239 -26.1905 -26.1883 -14.0788 -14.0586 -14.0432 -14.0334
   -14.0322 -14.0144 -13.9885 -13.9875 -13.9849 -13.9816 -13.9732 -13.9610
     7.5411   7.8775   7.9393   7.9404   7.9910   8.0394   8.0474   8.1261
     8.1623   8.1936   8.2734   8.2874   8.3904   8.4342   8.5203   8.5342
     8.5770   8.5880   8.7217   8.7825   8.7928   8.8564   8.8696   8.8857
     8.8895   9.0075   9.0345   9.0880   9.1937   9.2139   9.2362   9.3352
     9.3726   9.3801   9.5184   9.6199   9.6718   9.6907   9.7571   9.7873
     9.8415   9.9190  10.0072  10.1907  10.5339  10.6033  11.0446  11.1341
    11.2489  11.2699  11.3120  11.5110  11.5684  11.6104  11.6348  11.6804
    11.7122  11.8646  11.9823  12.0673  12.1119  12.1348  12.5361  12.8389
    13.6112  13.6886  13.9462  14.0293  14.5379  14.8855  14.9946  15.6702

          k = 0.0000 0.0000-0.1768 (  3690 PWs)   bands (ev):

   -52.4205 -52.4205 -52.2585 -52.2585 -52.1749 -52.1749 -52.0460 -52.0460
   -36.1172 -36.1172 -36.0871 -36.0871 -26.3855 -26.3855 -26.3837 -26.3837
   -26.3545 -26.3545 -26.3514 -26.3514 -26.3483 -26.3483 -26.3443 -26.3443
   -26.2888 -26.2888 -26.2766 -26.2766 -26.2731 -26.2731 -26.2446 -26.2446
   -26.2265 -26.2265 -26.1915 -26.1915 -14.0844 -14.0844 -14.0626 -14.0626
   -14.0232 -14.0232 -13.9972 -13.9972 -13.9780 -13.9780 -13.9700 -13.9700
     7.8053   7.8053   7.8948   7.8948   7.9936   7.9936   8.0086   8.0086
     8.2388   8.2388   8.3155   8.3155   8.3809   8.3809   8.5519   8.5519
     8.5695   8.5695   8.7191   8.7191   8.7732   8.7732   8.8224   8.8224
     8.9238   8.9238   9.0776   9.0776   9.2314   9.2314   9.2663   9.2663
     9.4211   9.4211   9.6158   9.6158   9.6527   9.6527   9.7606   9.7606
     9.8970   9.8970  10.0506  10.0506  10.4555  10.4555  11.2119  11.2119
    11.3446  11.3446  11.3538  11.3538  11.5475  11.5475  11.6317  11.6317
    11.7129  11.7129  12.0356  12.0356  12.0911  12.0911  13.1978  13.1978
    13.4056  13.4056  14.0461  14.0462  14.6185  14.6187  15.1127  15.1129

          k = 0.0000 0.1752 0.0000 (  3664 PWs)   bands (ev):

   -52.3301 -52.3041 -52.2801 -52.2666 -52.1160 -52.0645 -52.0100 -51.9995
   -36.1291 -36.1078 -36.0287 -36.0252 -26.3850 -26.3835 -26.3816 -26.3813
   -26.3558 -26.3537 -26.3497 -26.3481 -26.3476 -26.3465 -26.3414 -26.3402
   -26.2772 -26.2751 -26.2744 -26.2743 -26.2704 -26.2686 -26.2499 -26.2476
   -26.2211 -26.2182 -26.2027 -26.2002 -14.0582 -14.0538 -14.0309 -14.0300
   -14.0234 -14.0187 -14.0038 -13.9875 -13.9787 -13.9673 -13.9668 -13.9549
     7.8130   8.0059   8.1130   8.1411   8.1685   8.1972   8.2063   8.2378
     8.2831   8.2953   8.2998   8.3696   8.4214   8.4729   8.5133   8.5303
     8.5904   8.6185   8.6207   8.7053   8.7560   8.7792   8.8559   8.9575
     8.9740   9.0529   9.0695   9.1270   9.1307   9.2326   9.2452   9.2646
     9.3438   9.3963   9.4724   9.5066   9.5264   9.6529   9.6529   9.8579
     9.8889   9.9146  10.0359  10.0637  10.6038  10.7200  10.8442  10.8878
    11.0350  11.0365  11.2755  11.3031  11.3129  11.5418  11.5488  11.6580
    11.6772  11.7231  11.8265  11.9189  11.9267  11.9808  12.0614  12.0974
    12.4395  12.6310  14.5164  15.4207  15.7132  16.1163  16.4800  16.6069

          k = 0.0000 0.1752 0.0884 (  3669 PWs)   bands (ev):

   -52.3916 -52.3243 -52.2582 -52.2300 -52.1366 -52.0716 -52.0263 -52.0240
   -36.1168 -36.1042 -36.0634 -36.0356 -26.3854 -26.3839 -26.3823 -26.3819
   -26.3557 -26.3542 -26.3490 -26.3485 -26.3474 -26.3473 -26.3421 -26.3405
   -26.2772 -26.2752 -26.2745 -26.2733 -26.2707 -26.2697 -26.2496 -26.2479
   -26.2213 -26.2190 -26.2036 -26.2004 -14.0731 -14.0578 -14.0447 -14.0349
   -14.0196 -14.0142 -13.9985 -13.9954 -13.9870 -13.9708 -13.9586 -13.9538
     7.8921   8.0247   8.0473   8.1015   8.1345   8.1743   8.1911   8.2756
     8.3272   8.3520   8.3769   8.4297   8.4421   8.4739   8.4933   8.5199
     8.5859   8.5878   8.6341   8.7442   8.7563   8.7875   8.8678   8.8687
     8.9807   8.9963   9.0104   9.1052   9.1414   9.2110   9.2121   9.3205
     9.3437   9.3621   9.4672   9.4877   9.5875   9.6078   9.6489   9.7507
     9.8551   9.8956   9.9046  10.1319  10.4310  10.6790  10.9591  10.9698
    11.0578  11.1149  11.1845  11.2251  11.3132  11.4090  11.5637  11.6535
    11.7148  11.7747  11.8401  11.8744  11.9569  12.0092  12.0566  12.1360
    12.6878  13.2069  14.7482  14.8249  15.4231  15.8643  16.1206  16.1752

          k = 0.0000 0.1752-0.1768 (  3666 PWs)   bands (ev):

   -52.3235 -52.3235 -52.2069 -52.2069 -52.1108 -52.1108 -52.0638 -52.0638
   -36.0880 -36.0880 -36.0655 -36.0655 -26.3836 -26.3836 -26.3820 -26.3820
   -26.3549 -26.3549 -26.3488 -26.3488 -26.3474 -26.3474 -26.3402 -26.3402
   -26.2762 -26.2762 -26.2739 -26.2739 -26.2702 -26.2702 -26.2490 -26.2490
   -26.2193 -26.2193 -26.2022 -26.2022 -14.0672 -14.0672 -14.0366 -14.0366
   -14.0054 -14.0054 -13.9871 -13.9871 -13.9845 -13.9845 -13.9639 -13.9639
     7.9715   7.9715   8.1199   8.1199   8.1237   8.1237   8.2516   8.2516
     8.3296   8.3296   8.4360   8.4360   8.4708   8.4708   8.5066   8.5066
     8.5498   8.5498   8.7526   8.7526   8.8201   8.8201   8.8268   8.8268
     8.8905   8.8905   9.0531   9.0531   9.1728   9.1728   9.2701   9.2701
     9.3578   9.3578   9.4706   9.4706   9.6143   9.6143   9.7078   9.7078
     9.8387   9.8387   9.8836   9.8836  10.5520  10.5520  11.0797  11.0797
    11.1111  11.1111  11.1765  11.1765  11.2315  11.2315  11.6206  11.6206
    11.7767  11.7767  11.8712  11.8712  11.9682  11.9682  12.0960  12.0960
    13.5943  13.5944  14.3492  14.3492  15.3517  15.3518  15.9674  15.9675

          k =-0.3333 0.0000 0.0000 (  3722 PWs)   bands (ev):

   -52.3973 -52.3973 -52.3367 -52.3367 -52.2628 -52.2628 -52.2156 -52.2156
   -36.1540 -36.1540 -36.1511 -36.1511 -26.3865 -26.3865 -26.3856 -26.3856
   -26.3563 -26.3563 -26.3520 -26.3520 -26.3454 -26.3454 -26.3454 -26.3454
   -26.2903 -26.2903 -26.2781 -26.2781 -26.2745 -26.2745 -26.2444 -26.2444
   -26.2248 -26.2248 -26.1895 -26.1895 -14.0782 -14.0782 -14.0549 -14.0549
   -14.0420 -14.0420 -14.0249 -14.0249 -14.0154 -14.0154 -13.9970 -13.9970
     7.8603   7.8603   8.0175   8.0175   8.1835   8.1835   8.2259   8.2259
     8.3072   8.3072   8.3920   8.3920   8.4845   8.4845   8.5765   8.5765
     8.5992   8.5992   8.6345   8.6345   8.6587   8.6587   8.7709   8.7709
     8.9566   8.9566   9.0750   9.0750   9.1366   9.1366   9.3428   9.3428
     9.3564   9.3564   9.5306   9.5306   9.6109   9.6109   9.8230   9.8230
    10.0084  10.0084  10.5505  10.5505  10.5968  10.5968  11.1148  11.1148
    11.1425  11.1425  11.3198  11.3198  11.5032  11.5032  11.6080  11.6080
    11.7833  11.7833  11.8383  11.8383  12.1589  12.1589  12.2384  12.2384
    12.4638  12.4638  13.0158  13.0158  14.8453  14.8454  15.8951  15.8952

          k =-0.3333 0.0000 0.0884 (  3710 PWs)   bands (ev):

   -52.3622 -52.3622 -52.3265 -52.3265 -52.2178 -52.2178 -52.1935 -52.1935
   -36.1386 -36.1386 -36.1330 -36.1330 -26.3870 -26.3870 -26.3842 -26.3842
   -26.3555 -26.3555 -26.3521 -26.3521 -26.3459 -26.3459 -26.3448 -26.3448
   -26.2891 -26.2891 -26.2775 -26.2775 -26.2742 -26.2742 -26.2428 -26.2428
   -26.2259 -26.2259 -26.1904 -26.1904 -14.0722 -14.0722 -14.0458 -14.0458
   -14.0342 -14.0342 -14.0234 -14.0234 -14.0072 -14.0072 -13.9942 -13.9942
     7.8805   7.8805   8.0145   8.0145   8.1942   8.1942   8.2492   8.2492
     8.3118   8.3118   8.4238   8.4238   8.4698   8.4698   8.5245   8.5245
     8.6018   8.6018   8.6912   8.6912   8.7652   8.7652   8.8224   8.8224
     8.9560   8.9560   9.0092   9.0092   9.1610   9.1610   9.2711   9.2711
     9.3532   9.3532   9.4695   9.4695   9.5981   9.5981   9.7649   9.7649
     9.9920   9.9920  10.2219  10.2219  10.7751  10.7751  11.1951  11.1951
    11.3211  11.3211  11.3745  11.3745  11.4472  11.4472  11.5425  11.5425
    11.7548  11.7548  11.9017  11.9017  12.1233  12.1233  12.1803  12.1803
    12.6379  12.6379  13.2956  13.2956  14.4854  14.4854  15.8142  15.8144

          k =-0.3333 0.0000-0.1768 (  3680 PWs)   bands (ev):

   -52.2831 -52.2831 -52.2772 -52.2772 -52.1641 -52.1641 -52.1059 -52.1059
   -36.1092 -36.1092 -36.0833 -36.0833 -26.3847 -26.3847 -26.3818 -26.3818
   -26.3529 -26.3529 -26.3523 -26.3523 -26.3451 -26.3451 -26.3449 -26.3449
   -26.2893 -26.2893 -26.2764 -26.2764 -26.2735 -26.2735 -26.2415 -26.2415
   -26.2234 -26.2234 -26.1894 -26.1894 -14.0643 -14.0643 -14.0498 -14.0498
   -14.0126 -14.0126 -14.0004 -14.0004 -13.9913 -13.9913 -13.9688 -13.9688
     7.8951   7.8951   8.0927   8.0927   8.1396   8.1396   8.2172   8.2172
     8.3603   8.3603   8.3801   8.3801   8.5546   8.5546   8.6061   8.6061
     8.6175   8.6175   8.7412   8.7412   8.8080   8.8080   8.8407   8.8407
     8.9426   8.9426   8.9638   8.9638   9.1027   9.1027   9.2670   9.2670
     9.3613   9.3613   9.3969   9.3969   9.5956   9.5956   9.7558   9.7558
     9.9750   9.9750  10.0844  10.0844  10.8610  10.8610  11.2806  11.2806
    11.3618  11.3618  11.3729  11.3729  11.3978  11.3978  11.4694  11.4694
    11.8799  11.8799  11.8974  11.8974  12.0999  12.0999  12.1713  12.1713
    12.8444  12.8444  13.8286  13.8287  13.8837  13.8838  16.0059  16.0070

          k =-0.3333 0.1752 0.0000 (  3686 PWs)   bands (ev):

   -52.2971 -52.2971 -52.2821 -52.2821 -52.1839 -52.1839 -52.1526 -52.1526
   -36.1258 -36.1258 -36.0973 -36.0973 -26.3837 -26.3837 -26.3829 -26.3829
   -26.3537 -26.3537 -26.3511 -26.3511 -26.3438 -26.3438 -26.3411 -26.3411
   -26.2761 -26.2761 -26.2748 -26.2748 -26.2688 -26.2688 -26.2485 -26.2485
   -26.2173 -26.2173 -26.2014 -26.2014 -14.0514 -14.0514 -14.0408 -14.0408
   -14.0231 -14.0231 -14.0050 -14.0050 -13.9939 -13.9939 -13.9924 -13.9924
     8.0277   8.0277   8.2093   8.2093   8.2732   8.2732   8.3131   8.3131
     8.4753   8.4753   8.4967   8.4967   8.6463   8.6463   8.6645   8.6645
     8.6884   8.6884   8.7536   8.7536   8.7978   8.7978   8.8563   8.8563
     8.9112   8.9112   8.9140   8.9140   9.0607   9.0607   9.1861   9.1861
     9.2652   9.2652   9.4952   9.4952   9.5649   9.5649   9.7633   9.7633
     9.7980   9.7980  10.4066  10.4066  10.6236  10.6236  10.8003  10.8003
    11.1640  11.1640  11.1878  11.1878  11.4474  11.4474  11.4843  11.4843
    11.6864  11.6864  11.7335  11.7335  11.8081  11.8081  12.1039  12.1039
    12.9054  12.9054  13.0001  13.0001  13.9812  13.9813  14.1511  14.1511

          k =-0.3333 0.1752 0.0884 (  3692 PWs)   bands (ev):

   -52.3080 -52.3080 -52.2885 -52.2885 -52.1938 -52.1938 -52.1676 -52.1676
   -36.1385 -36.1385 -36.0950 -36.0950 -26.3845 -26.3845 -26.3831 -26.3831
   -26.3532 -26.3532 -26.3518 -26.3518 -26.3444 -26.3444 -26.3429 -26.3429
   -26.2763 -26.2763 -26.2744 -26.2744 -26.2704 -26.2704 -26.2493 -26.2493
   -26.2182 -26.2182 -26.2020 -26.2020 -14.0737 -14.0737 -14.0409 -14.0409
   -14.0205 -14.0205 -14.0085 -14.0085 -13.9949 -13.9949 -13.9867 -13.9867
     8.0496   8.0496   8.1671   8.1671   8.3248   8.3248   8.3797   8.3797
     8.4710   8.4710   8.4928   8.4928   8.5374   8.5374   8.6519   8.6519
     8.6938   8.6938   8.7672   8.7672   8.8392   8.8392   8.8683   8.8683
     8.9329   8.9329   8.9645   8.9645   9.0960   9.0960   9.1509   9.1509
     9.2777   9.2777   9.4494   9.4494   9.5077   9.5077   9.6850   9.6850
     9.8342   9.8342  10.1226  10.1226  10.7094  10.7094  10.9076  10.9076
    11.1523  11.1523  11.1876  11.1876  11.3936  11.3936  11.5815  11.5815
    11.6445  11.6445  11.7804  11.7804  11.8270  11.8270  12.1007  12.1007
    12.8007  12.8007  13.2658  13.2658  13.6576  13.6576  14.8262  14.8262

          k =-0.3333 0.1752-0.1768 (  3704 PWs)   bands (ev):

   -52.3361 -52.3361 -52.3170 -52.3170 -52.2087 -52.2087 -52.1954 -52.1954
   -36.1604 -36.1604 -36.1000 -36.1000 -26.3857 -26.3857 -26.3836 -26.3836
   -26.3538 -26.3538 -26.3528 -26.3528 -26.3452 -26.3452 -26.3450 -26.3450
   -26.2773 -26.2773 -26.2743 -26.2743 -26.2715 -26.2715 -26.2502 -26.2502
   -26.2195 -26.2195 -26.2036 -26.2036 -14.0903 -14.0903 -14.0590 -14.0590
   -14.0192 -14.0192 -14.0115 -14.0115 -14.0040 -14.0040 -13.9800 -13.9800
     8.0433   8.0433   8.2497   8.2497   8.2783   8.2783   8.3849   8.3849
     8.4128   8.4128   8.5630   8.5630   8.5667   8.5667   8.6263   8.6263
     8.6663   8.6663   8.7836   8.7836   8.8110   8.8110   8.8983   8.8983
     8.9229   8.9229   8.9931   8.9931   9.1090   9.1090   9.1845   9.1845
     9.2747   9.2747   9.3891   9.3891   9.4662   9.4662   9.6247   9.6247
     9.8870   9.8870   9.9023   9.9023  10.7635  10.7635  10.8904  10.8904
    11.1686  11.1686  11.1894  11.1894  11.4675  11.4675  11.5025  11.5025
    11.6437  11.6437  11.7810  11.7810  11.9701  11.9701  12.0449  12.0449
    12.9781  12.9781  12.9849  12.9849  13.9196  13.9196  15.4015  15.4015

     the Fermi energy is    11.3054 ev

!    total energy              =   -2037.13333794 Ry
     Harris-Foulkes estimate   =   -2037.13335287 Ry
     estimated scf accuracy    <       0.00001760 Ry

     The total energy is the sum of the following terms:

     one-electron contribution =    -649.39204724 Ry
     hartree contribution      =     395.04007564 Ry
     xc contribution           =    -205.89972468 Ry
     ewald contribution        =   -1575.61764417 Ry
     smearing contrib. (-TS)   =      -1.26399749 Ry

     convergence has been achieved in  12 iterations

     Forces acting on atoms (Ry/au):

     atom    1 type  1   force =     0.00000000   -0.00371417   -0.00057166
     atom    2 type  1   force =     0.00000000    0.00371417    0.00057166
     atom    3 type  1   force =     0.00000000   -0.00371417    0.00057166
     atom    4 type  1   force =     0.00000000    0.00371417   -0.00057166
     atom    5 type  1   force =     0.00000000   -0.00163537    0.01086720
     atom    6 type  1   force =     0.00000000    0.00163537   -0.01086720
     atom    7 type  1   force =     0.00000000   -0.00163537   -0.01086720
     atom    8 type  1   force =     0.00000000    0.00163537    0.01086720
     atom    9 type  2   force =     0.00000000   -0.00056755   -0.00497305
     atom   10 type  2   force =     0.00000000    0.00056755    0.00497305
     atom   11 type  2   force =     0.00000000   -0.00056755    0.00497305
     atom   12 type  2   force =     0.00000000    0.00056755   -0.00497305

     Total force =     0.025294     Total SCF correction =     0.000000


     entering subroutine stress ...

          total   stress  (Ry/bohr**3)                   (kbar)     P=-1376.30
  -0.00962715   0.00000000   0.00000000      -1416.20      0.00      0.00
   0.00000000  -0.00897671   0.00000000          0.00  -1320.52      0.00
   0.00000000   0.00000000  -0.00946392          0.00      0.00  -1392.19


     number of scf cycles    =   3
     number of bfgs steps    =   2

     enthalpy old            =   -2046.8885763201 Ry
     enthalpy new            =   -2037.1333379384 Ry

     CASE: enthalpy_new > enthalpy_old

     new trust radius        =       0.9432293491 bohr

     trust_radius < trust_radius_min

     resetting bfgs history

     Message from routine bfgs:
     history already reset at previous step: stopping
     new conv_thr            =       0.0001000000 Ry

     new unit-cell volume =   1305.41085 a.u.^3 (   193.44193 Ang^3 )

CELL_PARAMETERS (alat=  7.01510508)
   1.156182601   0.000000000   0.000000000
   0.000000000   1.495751951   0.000000000
   0.000000000   0.000000000   2.186546258

ATOMIC_POSITIONS (crystal)
Co       0.750000000   0.825442044   0.434674138
Co       0.250000000   0.174557956   0.565325862
Co       0.750000000   0.325442044   0.065325862
Co       0.250000000   0.674557956   0.934674138
Co       0.250000000   0.539716668   0.279878566
Co       0.750000000   0.460283332   0.720121434
Co       0.250000000   0.039716668   0.220121434
Co       0.750000000   0.960283332   0.779878566
Si       0.250000000   0.200243842   0.893064249
Si       0.750000000   0.799756158   0.106935751
Si       0.250000000   0.700243842   0.606935751
Si       0.750000000   0.299756158   0.393064249



     Writing output data file Prototype-La-oP12-Co2Si.save
     NEW-OLD atomic charge density approx. for the potential
     NEW k-points:
        k(    1) = (   0.0000000   0.0000000   0.0000000), wk =   0.0833333
        k(    2) = (   0.0000000   0.0000000   0.1143356), wk =   0.1666667
        k(    3) = (   0.0000000   0.0000000  -0.2286711), wk =   0.0833333
        k(    4) = (   0.0000000   0.2228534   0.0000000), wk =   0.1666667
        k(    5) = (   0.0000000   0.2228534   0.1143356), wk =   0.3333333
        k(    6) = (   0.0000000   0.2228534  -0.2286711), wk =   0.1666667
        k(    7) = (  -0.4324576   0.0000000   0.0000000), wk =   0.0833333
        k(    8) = (  -0.4324576   0.0000000   0.1143356), wk =   0.1666667
        k(    9) = (  -0.4324576   0.0000000  -0.2286711), wk =   0.0833333
        k(   10) = (  -0.4324576   0.2228534   0.0000000), wk =   0.1666667
        k(   11) = (  -0.4324576   0.2228534   0.1143356), wk =   0.3333333
        k(   12) = (  -0.4324576   0.2228534  -0.2286711), wk =   0.1666667

     total cpu time spent up to now is      396.5 secs

     Self-consistent Calculation

     iteration #  1     ecut=    40.00 Ry     beta=0.70
     CG style diagonalization
     c_bands:  1 eigenvalues not converged
     c_bands:  1 eigenvalues not converged
     c_bands:  3 eigenvalues not converged
     c_bands:  1 eigenvalues not converged
     c_bands:  1 eigenvalues not converged
     c_bands:  2 eigenvalues not converged
     c_bands:  2 eigenvalues not converged
     ethr =  1.00E-06,  avg # of iterations = 32.3

     total cpu time spent up to now is      462.3 secs

     total energy              =   -1956.02282425 Ry
     Harris-Foulkes estimate   =   -2193.00826894 Ry
     estimated scf accuracy    <     296.98542465 Ry

     iteration #  2     ecut=    40.00 Ry     beta=0.70
     CG style diagonalization
     ethr =  1.00E-02,  avg # of iterations =  6.9

     total cpu time spent up to now is      477.7 secs

     total energy              =   -2018.22948406 Ry
     Harris-Foulkes estimate   =   -2086.58852254 Ry
     estimated scf accuracy    <     107.32786194 Ry

     iteration #  3     ecut=    40.00 Ry     beta=0.70
     CG style diagonalization
     ethr =  1.00E-02,  avg # of iterations =  5.8

     total cpu time spent up to now is      490.5 secs

     total energy              =   -2040.37150347 Ry
     Harris-Foulkes estimate   =   -2053.50735437 Ry
     estimated scf accuracy    <      27.40991016 Ry

     iteration #  4     ecut=    40.00 Ry     beta=0.70
     CG style diagonalization
     ethr =  1.00E-02,  avg # of iterations =  3.7

     total cpu time spent up to now is      499.1 secs

     total energy              =   -2047.83380297 Ry
     Harris-Foulkes estimate   =   -2049.15146777 Ry
     estimated scf accuracy    <       3.03317994 Ry

     iteration #  5     ecut=    40.00 Ry     beta=0.70
     CG style diagonalization
     ethr =  1.52E-03,  avg # of iterations =  3.7

     total cpu time spent up to now is      507.6 secs

     total energy              =   -2048.39192022 Ry
     Harris-Foulkes estimate   =   -2048.57019719 Ry
     estimated scf accuracy    <       0.32140291 Ry

     iteration #  6     ecut=    40.00 Ry     beta=0.70
     CG style diagonalization
     c_bands:  3 eigenvalues not converged
     c_bands:  1 eigenvalues not converged
     ethr =  1.61E-04,  avg # of iterations =  4.0

     total cpu time spent up to now is      516.8 secs

     total energy              =   -2048.48228384 Ry
     Harris-Foulkes estimate   =   -2048.51902798 Ry
     estimated scf accuracy    <       0.09039871 Ry

     iteration #  7     ecut=    40.00 Ry     beta=0.70
     CG style diagonalization
     c_bands:  1 eigenvalues not converged
     ethr =  4.52E-05,  avg # of iterations =  3.4

     total cpu time spent up to now is      524.4 secs

     total energy              =   -2048.49256157 Ry
     Harris-Foulkes estimate   =   -2048.49796024 Ry
     estimated scf accuracy    <       0.01184833 Ry

     iteration #  8     ecut=    40.00 Ry     beta=0.70
     CG style diagonalization
     c_bands:  1 eigenvalues not converged
     ethr =  5.92E-06,  avg # of iterations =  3.7

     total cpu time spent up to now is      532.5 secs

     total energy              =   -2048.49404834 Ry
     Harris-Foulkes estimate   =   -2048.49515956 Ry
     estimated scf accuracy    <       0.00220463 Ry

     iteration #  9     ecut=    40.00 Ry     beta=0.70
     CG style diagonalization
     c_bands:  1 eigenvalues not converged
     ethr =  1.10E-06,  avg # of iterations =  3.8

     total cpu time spent up to now is      540.5 secs

     total energy              =   -2048.49451886 Ry
     Harris-Foulkes estimate   =   -2048.49470345 Ry
     estimated scf accuracy    <       0.00036020 Ry

     iteration # 10     ecut=    40.00 Ry     beta=0.70
     CG style diagonalization
     ethr =  1.80E-07,  avg # of iterations =  3.8

     total cpu time spent up to now is      548.4 secs

     End of self-consistent calculation

          k = 0.0000 0.0000 0.0000 (  3675 PWs)   bands (ev):

   -38.5617 -38.5271 -38.5269 -38.5208 -38.4042 -38.3568 -38.2756 -38.2698
   -17.7614 -17.7586 -17.7356 -17.7207 -10.0525 -10.0431  -9.9413  -9.8902
    -9.8801  -9.7994  -9.7671  -9.7405  -9.7397  -9.7351  -9.5577  -9.5344
    -9.5316  -9.5282  -9.4385  -9.4284  -9.3700  -9.3147  -9.2954  -9.2862
    -9.2282  -9.1641  -8.9748  -8.9337   3.7263   3.7690   3.7984   3.8308
     3.8877   3.9012   3.9413   3.9486   3.9519   4.0971   4.1034   4.2642
    21.1246  21.4791  21.5031  21.7237  21.8270  21.8910  21.8969  22.0974
    22.2836  22.2922  22.7149  22.9945  23.3027  23.4364  23.6078  23.6539
    23.6542  23.9657  24.1391  24.6404  24.8449  25.0192  25.0772  25.1515
    25.1915  25.1938  25.4350  25.6593  25.7677  25.7972  25.9606  25.9941
    26.1987  26.5203  26.5345  26.5460  27.0071  27.1671  27.4463  28.1615
    28.1974  28.3465  28.3825  28.6296  29.1653  29.4960  30.0232  30.1059
    30.3784  30.4475  30.6282  31.2840  31.7504  31.8897  31.8939  31.9619
    32.6343  32.6447  33.1319  33.2474  33.3580  33.3950  33.4385  33.6841
    33.9440  36.2267  36.2565  36.7102  37.0103  37.1342  37.8270  39.4901

          k = 0.0000 0.0000 0.1143 (  3675 PWs)   bands (ev):

   -38.5465 -38.5396 -38.5282 -38.5191 -38.3982 -38.3874 -38.2833 -38.2398
   -17.7590 -17.7513 -17.7395 -17.7265 -10.0393 -10.0172  -9.9442  -9.9183
    -9.8812  -9.8531  -9.8168  -9.7450  -9.7130  -9.7004  -9.5935  -9.5697
    -9.5339  -9.4982  -9.4406  -9.4078  -9.3283  -9.3063  -9.2955  -9.2505
    -9.2266  -9.1692  -8.9738  -8.9492   3.7514   3.7736   3.7805   3.8427
[...]

     total energy              =   -2051.00703043 Ry
     Harris-Foulkes estimate   =   -2051.13568439 Ry
     estimated scf accuracy    <       0.46340296 Ry

     iteration #  8     ecut=    40.00 Ry     beta=0.70
     CG style diagonalization
     ethr =  2.32E-04,  avg # of iterations =  3.0

     total cpu time spent up to now is      901.0 secs

     total energy              =   -2051.01976662 Ry
     Harris-Foulkes estimate   =   -2051.05200672 Ry
     estimated scf accuracy    <       0.07314645 Ry

     iteration #  9     ecut=    40.00 Ry     beta=0.70
     CG style diagonalization
     c_bands:  1 eigenvalues not converged
     c_bands:  1 eigenvalues not converged
     c_bands:  1 eigenvalues not converged
     ethr =  3.66E-05,  avg # of iterations =  4.0

     total cpu time spent up to now is      914.7 secs

     total energy              =   -2051.03970592 Ry
     Harris-Foulkes estimate   =   -2051.04054658 Ry
     estimated scf accuracy    <       0.00300683 Ry

     iteration # 10     ecut=    40.00 Ry     beta=0.70
     CG style diagonalization
     c_bands:  1 eigenvalues not converged
     c_bands:  1 eigenvalues not converged
     c_bands:  1 eigenvalues not converged
     ethr =  1.50E-06,  avg # of iterations =  4.5

     total cpu time spent up to now is      930.4 secs

     total energy              =   -2051.04003717 Ry
     Harris-Foulkes estimate   =   -2051.04095136 Ry
     estimated scf accuracy    <       0.00231153 Ry

     iteration # 11     ecut=    40.00 Ry     beta=0.70
     CG style diagonalization
     ethr =  1.16E-06,  avg # of iterations =  3.2

     total cpu time spent up to now is      941.1 secs

     End of self-consistent calculation

          k = 0.0000 0.0000 0.0000 (  5611 PWs)   bands (ev):

   -38.8469 -38.8153 -38.7900 -38.7852 -38.6500 -38.6266 -38.5612 -38.5601
   -17.6592 -17.6544 -17.6285 -17.6130 -10.3098 -10.2842 -10.2088 -10.1598
   -10.1387 -10.0662 -10.0402 -10.0285 -10.0179 -10.0142  -9.8518  -9.8277
    -9.8269  -9.8219  -9.7445  -9.7302  -9.6475  -9.6350  -9.6257  -9.5808
    -9.5113  -9.4867  -9.2484  -9.2300   3.6024   3.6310   3.6704   3.7028
     3.7354   3.7779   3.7998   3.8081   3.8103   3.9686   3.9720   4.1123
    21.1053  21.4735  21.4919  21.6692  21.8168  21.8649  21.8878  22.0730
    22.2555  22.2750  22.7043  22.9917  23.2948  23.4302  23.5845  23.6048
    23.6430  23.9417  24.1162  24.6271  24.8440  24.9991  25.0057  25.1548
    25.1755  25.1857  25.3639  25.6644  25.7591  25.7669  25.9449  25.9793
    26.1842  26.5200  26.5246  26.5300  26.9547  27.1577  27.4445  28.1467
    28.2070  28.3289  28.3431  28.6457  29.1118  29.4845  29.9741  30.0698
    30.3629  30.4200  30.6273  31.2379  31.7416  31.8738  31.8862  31.9313
    32.5594  32.6422  33.1031  33.2075  33.2509  33.3457  33.3671  33.6754
    33.9426  36.1035  36.1053  36.5490  36.8820  36.9581  37.6113  38.6946

          k = 0.0000 0.0000 0.1143 (  5589 PWs)   bands (ev):

   -38.8415 -38.8206 -38.7877 -38.7848 -38.6452 -38.6278 -38.5593 -38.5592
   -17.6549 -17.6480 -17.6330 -17.6189 -10.2963 -10.2650 -10.2027 -10.1864
   -10.1395 -10.1104 -10.0791 -10.0122  -9.9885  -9.9709  -9.8743  -9.8644
    -9.8196  -9.7957  -9.7378  -9.7315  -9.6315  -9.6278  -9.6215  -9.5445
    -9.5382  -9.4635  -9.2453  -9.2325   3.6179   3.6390   3.6664   3.7082
     3.7118   3.7634   3.8098   3.8110   3.8246   3.9222   4.0167   4.0990
    21.2136  21.3707  21.5172  21.5417  21.6226  21.7889  22.2101  22.2970
    22.3008  22.5146  22.7161  23.2408  23.4124  23.4273  23.4999  23.7244
    23.7635  23.7692  24.1095  24.6303  24.6697  24.6805  24.7768  24.8804
    24.9139  25.1248  25.3146  25.5368  25.7144  25.7215  25.7388  25.9406
    26.3914  26.5841  26.8210  26.8961  27.1997  27.3337  27.6853  27.7741
    27.8385  27.8761  28.5115  28.7405  29.0761  29.2031  30.0455  30.0977
    30.2814  30.6751  30.8331  31.5079  31.5591  31.7667  31.8900  32.0385
    32.0651  32.4882  32.6107  32.9807  33.3926  33.6370  33.6773  34.0188
    35.4155  35.7532  36.3057  36.4775  37.0390  37.6250  37.8046  38.4260

          k = 0.0000 0.0000-0.2287 (  5570 PWs)   bands (ev):

   -38.8306 -38.8306 -38.7854 -38.7854 -38.6355 -38.6355 -38.5579 -38.5579
   -17.6440 -17.6440 -17.6333 -17.6333 -10.2533 -10.2533 -10.2155 -10.2155
   -10.1446 -10.1446 -10.0588 -10.0588  -9.9298  -9.9298  -9.9042  -9.9042
    -9.8005  -9.8005  -9.7332  -9.7332  -9.6293  -9.6293  -9.5769  -9.5769
    -9.4808  -9.4808  -9.2393  -9.2393   3.6549   3.6549   3.6596   3.6596
     3.7345   3.7345   3.8150   3.8150   3.8674   3.8674   4.0629   4.0629
    21.2886  21.2886  21.3960  21.3960  21.7520  21.7520  22.6368  22.6368
    22.7777  22.7777  22.8438  22.8438  23.0188  23.0188  23.8270  23.8270
    23.8577  23.8577  24.0598  24.0598  24.5575  24.5575  24.6944  24.6944
    24.8124  24.8124  25.7400  25.7400  25.7721  25.7721  25.7876  25.7876
    26.4298  26.4298  26.7383  26.7383  27.3576  27.3576  27.6658  27.6658
    28.0868  28.0868  28.5038  28.5038  28.7948  28.7948  30.1222  30.1222
    31.0296  31.0296  31.1049  31.1049  31.3382  31.3382  32.0091  32.0091
    32.0506  32.0506  32.6309  32.6309  33.5279  33.5279  34.7480  34.7481
    35.6448  35.6448  36.9578  36.9579  37.1887  37.1888  37.9595  37.9595

          k = 0.0000 0.2229 0.0000 (  5529 PWs)   bands (ev):

   -38.8322 -38.8167 -38.7850 -38.7848 -38.6256 -38.6073 -38.5810 -38.5713
   -17.6757 -17.6755 -17.6177 -17.6121 -10.2120 -10.1943 -10.1182 -10.1038
   -10.0760 -10.0601 -10.0476 -10.0342  -9.9882  -9.9546  -9.8920  -9.8417
    -9.8408  -9.7239  -9.7174  -9.6830  -9.6485  -9.5993  -9.5993  -9.5842
    -9.5672  -9.4845  -9.4199  -9.3707   3.6103   3.6189   3.6220   3.6614
     3.6983   3.7007   3.7877   3.8165   3.8329   3.8418   3.9933   4.0404
    21.6830  21.9540  21.9731  22.0572  22.1509  22.1701  22.3662  22.5578
    22.6169  22.7354  22.8500  23.0572  23.3787  23.4371  23.4500  23.7033
    23.7727  23.8324  23.9601  24.1785  24.5035  24.8681  24.8824  25.0584
    25.2214  25.2416  25.2421  25.5081  25.5800  25.9284  26.1305  26.2434
    26.2791  26.3202  26.6475  26.6703  27.0920  27.3235  27.3952  27.6914
    27.9228  28.3611  28.3925  28.6572  28.7278  29.1498  29.4446  29.5622
    29.9606  30.2548  30.7073  30.9131  30.9976  31.2807  31.6012  31.6980
    31.8897  31.9432  32.1950  32.4129  32.5703  32.6394  33.5555  33.6001
    33.7564  33.8899  36.9027  36.9864  37.3650  38.4680  38.7664  38.9445

          k = 0.0000 0.2229 0.1143 (  5579 PWs)   bands (ev):

   -38.8324 -38.8194 -38.7896 -38.7885 -38.6247 -38.6113 -38.5819 -38.5762
   -17.6730 -17.6722 -17.6199 -17.6157 -10.2051 -10.2001 -10.1514 -10.1184
   -10.1172 -10.0492 -10.0416 -10.0160  -9.9969  -9.9693  -9.8999  -9.8559
    -9.8214  -9.7380  -9.7218  -9.6903  -9.6442  -9.6122  -9.6105  -9.6091
    -9.5320  -9.4816  -9.4169  -9.3822   3.6086   3.6287   3.6293   3.6495
     3.6866   3.6923   3.7951   3.8078   3.8175   3.8330   4.0042   4.0385
    21.6524  21.8107  21.8396  22.0457  22.0855  22.3191  22.5790  22.5811
    22.7967  22.8824  23.0420  23.2630  23.2768  23.3274  23.5518  23.7205
    23.7497  23.8716  24.1447  24.1886  24.3856  24.7134  24.8041  24.9151
    25.0536  25.2204  25.3378  25.5161  25.6253  25.8220  26.0767  26.1571
    26.1834  26.4030  26.4476  26.6741  27.0250  27.2868  27.2958  27.6340
    27.7328  28.1965  28.2111  28.5823  28.6209  29.2126  29.8138  29.8765
    30.1095  30.3680  30.4250  30.7390  30.8339  31.2503  31.4522  31.7220
    32.0244  32.0682  32.2903  32.3172  32.6791  32.7842  33.2370  33.7617
    34.2596  34.6942  37.0974  37.1640  37.4479  38.1432  38.4449  38.8438

          k = 0.0000 0.2229-0.2287 (  5562 PWs)   bands (ev):

   -38.8260 -38.8260 -38.7885 -38.7885 -38.6163 -38.6163 -38.5783 -38.5783
   -17.6692 -17.6692 -17.6211 -17.6211 -10.1919 -10.1919 -10.1629 -10.1629
   -10.0860 -10.0860 -10.0028 -10.0028  -9.9856  -9.9856  -9.8802  -9.8802
    -9.7750  -9.7750  -9.7017  -9.7017  -9.6290  -9.6290  -9.6165  -9.6165
    -9.4894  -9.4894  -9.3994  -9.3994   3.6227   3.6227   3.6582   3.6582
     3.6687   3.6687   3.8027   3.8028   3.8149   3.8149   4.0270   4.0271
    21.6020  21.6020  21.8844  21.8844  22.3701  22.3701  22.7801  22.7801
    22.8917  22.8917  23.1953  23.1953  23.4767  23.4767  23.4785  23.4785
    23.8732  23.8732  24.3138  24.3138  24.3394  24.3394  24.8286  24.8286
    24.8860  24.8860  25.4683  25.4683  25.8876  25.8876  25.8879  25.8879
    26.3062  26.3062  26.7730  26.7730  26.8217  26.8217  27.2755  27.2755
    27.8464  27.8464  28.3412  28.3412  28.9563  28.9563  30.0540  30.0540
    30.3467  30.3467  30.6605  30.6605  30.7464  30.7464  31.5086  31.5086
    32.2102  32.2102  32.5726  32.5726  32.6183  32.6183  33.2822  33.2822
    35.6774  35.6774  36.7229  36.7229  37.9878  37.9879  38.1647  38.1648

          k =-0.4325 0.0000 0.0000 (  5596 PWs)   bands (ev):

   -38.8048 -38.8048 -38.8000 -38.8000 -38.6503 -38.6503 -38.5598 -38.5598
   -17.6770 -17.6770 -17.6382 -17.6382 -10.3610 -10.3610 -10.1783 -10.1783
   -10.1740 -10.1740 -10.0788 -10.0788 -10.0086 -10.0086  -9.8485  -9.8485
    -9.7819  -9.7819  -9.7090  -9.7090  -9.5781  -9.5781  -9.5275  -9.5275
    -9.4853  -9.4853  -9.2547  -9.2547   3.6280   3.6280   3.7242   3.7242
     3.7789   3.7789   3.8611   3.8611   3.9532   3.9532   3.9987   3.9987
    21.5651  21.5651  21.8950  21.8950  22.4457  22.4457  22.7163  22.7163
    22.9403  22.9403  23.0322  23.0322  23.2843  23.2843  23.6079  23.6079
    23.7110  23.7110  23.9265  23.9265  24.1576  24.1576  24.2545  24.2545
    24.8559  24.8559  25.1669  25.1669  25.5563  25.5563  26.0710  26.0710
    26.1662  26.1662  26.9981  26.9981  27.0950  27.0950  28.1857  28.1857
    28.3101  28.3101  29.0688  29.0688  29.1481  29.1481  29.7244  29.7244
    30.2618  30.2618  30.7534  30.7534  30.7900  30.7900  32.0155  32.0155
    32.2666  32.2666  32.2732  32.2732  33.0028  33.0028  33.5661  33.5661
    33.6777  33.6777  34.0245  34.0245  37.3132  37.3133  37.7636  37.7638

          k =-0.4325 0.0000 0.1143 (  5596 PWs)   bands (ev):

   -38.8037 -38.8037 -38.8006 -38.8006 -38.6497 -38.6497 -38.5604 -38.5604
   -17.6772 -17.6772 -17.6378 -17.6378 -10.3485 -10.3485 -10.2634 -10.2634
   -10.1288 -10.1288 -10.0783 -10.0783  -9.9633  -9.9633  -9.8534  -9.8534
    -9.8290  -9.8290  -9.6733  -9.6733  -9.5967  -9.5967  -9.5152  -9.5152
    -9.4807  -9.4807  -9.2525  -9.2525   3.6148   3.6148   3.7442   3.7442
     3.7844   3.7844   3.8501   3.8501   3.9472   3.9472   3.9982   3.9982
    21.7125  21.7125  21.7493  21.7493  22.5154  22.5154  22.6670  22.6670
    22.9585  22.9585  23.0865  23.0866  23.2732  23.2732  23.6420  23.6420
    23.7869  23.7869  24.0237  24.0237  24.1701  24.1701  24.4460  24.4460
    24.7249  24.7249  24.9958  24.9958  25.7480  25.7480  25.8262  25.8262
    26.2317  26.2317  26.5951  26.5951  27.1076  27.1076  27.7601  27.7601
    28.2494  28.2494  28.6873  28.6873  29.6485  29.6485  30.2100  30.2100
    30.3720  30.3720  30.7195  30.7195  30.8380  30.8380  31.6694  31.6694
    32.3880  32.3880  32.6469  32.6469  32.9246  32.9246  33.2634  33.2635
    33.6878  33.6878  34.7189  34.7190  36.3896  36.3896  37.8716  37.8717

          k =-0.4325 0.0000-0.2287 (  5608 PWs)   bands (ev):

   -38.8048 -38.8048 -38.8008 -38.8008 -38.6508 -38.6508 -38.5599 -38.5599
   -17.6775 -17.6775 -17.6374 -17.6374 -10.3341 -10.3341 -10.2925 -10.2925
   -10.1629 -10.1629 -10.0352 -10.0352  -9.9359  -9.9359  -9.8637  -9.8637
    -9.8632  -9.8632  -9.6532  -9.6532  -9.6112  -9.6112  -9.5060  -9.5060
    -9.4799  -9.4799  -9.2596  -9.2596   3.6055   3.6055   3.7623   3.7623
     3.8018   3.8018   3.8262   3.8262   3.9402   3.9402   3.9954   3.9954
    21.5950  21.5950  22.1194  22.1194  22.2585  22.2585  22.5473  22.5473
    22.9885  22.9885  23.2470  23.2470  23.3782  23.3782  23.7629  23.7629
    23.8967  23.8967  24.0751  24.0751  24.1885  24.1885  24.2292  24.2292
    24.8790  24.8790  25.2389  25.2389  25.2427  25.2427  25.5945  25.5945
    26.1339  26.1339  26.8732  26.8732  26.9575  26.9575  27.5575  27.5575
    28.2076  28.2076  28.2869  28.2869  30.0560  30.0560  30.0597  30.0597
    30.4651  30.4651  30.9708  30.9708  31.0682  31.0682  31.3470  31.3470
    32.4172  32.4172  32.7680  32.7680  33.0117  33.0117  33.4850  33.4850
    33.8307  33.8307  35.0493  35.0493  35.4130  35.4131  38.2558  38.2558

          k =-0.4325 0.2229 0.0000 (  5600 PWs)   bands (ev):

   -38.8030 -38.8030 -38.8012 -38.8012 -38.6277 -38.6277 -38.5829 -38.5829
   -17.6746 -17.6746 -17.6553 -17.6553 -10.2427 -10.2427 -10.1676 -10.1676
   -10.1372 -10.1372 -10.0201 -10.0201  -9.9359  -9.9359  -9.8784  -9.8784
    -9.8159  -9.8159  -9.7120  -9.7120  -9.5915  -9.5915  -9.5542  -9.5542
    -9.4844  -9.4844  -9.4095  -9.4095   3.6198   3.6198   3.6526   3.6526
     3.7937   3.7937   3.8186   3.8186   3.9271   3.9271   3.9364   3.9364
    22.0908  22.0908  22.3770  22.3770  22.7045  22.7045  22.8776  22.8776
    23.0116  23.0116  23.1222  23.1222  23.7062  23.7062  23.8859  23.8859
    24.1439  24.1439  24.2992  24.2992  24.3319  24.3319  24.4436  24.4436
    24.6723  24.6723  24.8071  24.8071  25.4732  25.4732  25.8174  25.8174
    26.1360  26.1360  26.7332  26.7332  26.7674  26.7674  27.3649  27.3649
    27.9717  27.9717  28.4957  28.4957  29.3265  29.3265  29.4173  29.4173
    30.2658  30.2658  30.3684  30.3684  30.9278  30.9278  31.2806  31.2806
    31.9438  31.9438  31.9653  31.9653  32.2440  32.2440  32.6895  32.6895
    34.7160  34.7160  34.8289  34.8289  36.0226  36.0227  36.7138  36.7138

          k =-0.4325 0.2229 0.1143 (  5586 PWs)   bands (ev):

   -38.8026 -38.8026 -38.8004 -38.8004 -38.6270 -38.6270 -38.5823 -38.5823
   -17.6746 -17.6746 -17.6550 -17.6550 -10.2548 -10.2548 -10.1703 -10.1703
   -10.1104 -10.1104 -10.0530 -10.0530  -9.9388  -9.9388  -9.8921  -9.8921
    -9.7840  -9.7840  -9.6775  -9.6775  -9.5975  -9.5975  -9.5630  -9.5630
    -9.4838  -9.4838  -9.4078  -9.4078   3.6120   3.6120   3.6691   3.6691
     3.7928   3.7928   3.8082   3.8082   3.9260   3.9260   3.9392   3.9392
    22.1335  22.1335  22.2760  22.2760  22.7424  22.7424  22.9604  22.9604
    23.1241  23.1241  23.3066  23.3066  23.5889  23.5889  23.8506  23.8506
    23.9459  23.9459  24.2443  24.2443  24.4000  24.4000  24.4843  24.4843
    24.7188  24.7188  25.0010  25.0010  25.5638  25.5638  25.7098  25.7098
    26.2010  26.2010  26.3910  26.3910  26.8144  26.8144  27.3010  27.3010
    27.8083  27.8083  28.1396  28.1396  29.3152  29.3152  29.7866  29.7866
    30.1728  30.1728  30.3371  30.3371  30.7506  30.7506  31.3224  31.3224
    31.7416  31.7416  32.1658  32.1658  32.3343  32.3343  33.0367  33.0367
    34.6774  34.6774  35.1517  35.1517  35.7735  35.7736  37.1677  37.1678

          k =-0.4325 0.2229-0.2287 (  5564 PWs)   bands (ev):

   -38.8011 -38.8011 -38.7999 -38.7999 -38.6254 -38.6254 -38.5821 -38.5821
   -17.6747 -17.6747 -17.6547 -17.6547 -10.2685 -10.2685 -10.1330 -10.1330
   -10.1194 -10.1194 -10.0784 -10.0784  -9.9572  -9.9572  -9.8838  -9.8838
    -9.7563  -9.7563  -9.6266  -9.6266  -9.6222  -9.6222  -9.5764  -9.5764
    -9.4818  -9.4818  -9.4049  -9.4049   3.6066   3.6066   3.6844   3.6844
     3.7926   3.7926   3.7958   3.7958   3.9280   3.9280   3.9400   3.9400
    22.0074  22.0074  22.5972  22.5972  22.5979  22.5979  23.0427  23.0427
    23.1353  23.1353  23.4209  23.4209  23.5789  23.5789  23.8371  23.8371
    23.9354  23.9354  24.2047  24.2047  24.2136  24.2136  24.6364  24.6364
    24.7777  24.7777  25.2846  25.2846  25.3756  25.3756  25.7327  25.7327
    25.7630  25.7630  26.7481  26.7481  26.7508  26.7508  27.2145  27.2145
    27.6969  27.6969  27.8348  27.8348  29.2075  29.2075  29.8050  29.8050
    30.2532  30.2532  30.2547  30.2547  30.9173  30.9173  31.0121  31.0121
    31.7058  31.7058  32.2596  32.2596  32.9007  32.9007  33.0562  33.0562
    34.7409  34.7409  35.1255  35.1255  35.6901  35.6901  38.1375  38.1375

     the Fermi energy is    30.8667 ev

!    total energy              =   -2051.04034428 Ry
     Harris-Foulkes estimate   =   -2051.04039892 Ry
     estimated scf accuracy    <       0.00006000 Ry

     The total energy is the sum of the following terms:

     one-electron contribution =      -5.95184737 Ry
     hartree contribution      =     201.08488352 Ry
     xc contribution           =    -217.05765329 Ry
     ewald contribution        =   -2028.51319939 Ry
     smearing contrib. (-TS)   =      -0.60252776 Ry

     convergence has been achieved in  11 iterations

     Forces acting on atoms (Ry/au):

     atom    1 type  1   force =     0.00000000   -0.03289642   -0.01783366
     atom    2 type  1   force =     0.00000000    0.03289642    0.01783366
     atom    3 type  1   force =     0.00000000   -0.03289642    0.01783366
     atom    4 type  1   force =     0.00000000    0.03289642   -0.01783366
     atom    5 type  1   force =     0.00000000    0.06371381   -0.05848486
     atom    6 type  1   force =     0.00000000   -0.06371381    0.05848486
     atom    7 type  1   force =     0.00000000    0.06371381    0.05848486
     atom    8 type  1   force =     0.00000000   -0.06371381   -0.05848486
     atom    9 type  2   force =     0.00000000   -0.05727117   -0.01014212
     atom   10 type  2   force =     0.00000000    0.05727117    0.01014212
     atom   11 type  2   force =     0.00000000   -0.05727117    0.01014212
     atom   12 type  2   force =     0.00000000    0.05727117   -0.01014212

     Total force =     0.221477     Total SCF correction =     0.000000


     entering subroutine stress ...

          total   stress  (Ry/bohr**3)                   (kbar)     P=  930.74
   0.00661496   0.00000000   0.00000000        973.09      0.00      0.00
   0.00000000   0.00596384   0.00000000          0.00    877.31      0.00
   0.00000000   0.00000000   0.00640232          0.00      0.00    941.81


     Writing output data file Prototype-La-oP12-Co2Si.save
 
     init_run     :      3.92s CPU      4.85s WALL (       2 calls)
     electrons    :    804.19s CPU    921.08s WALL (       5 calls)
     update_pot   :      1.90s CPU      1.92s WALL (       3 calls)
     forces       :      4.24s CPU      4.41s WALL (       5 calls)
     stress       :     10.46s CPU     10.65s WALL (       5 calls)

     Called by init_run:
     wfcinit      :      3.02s CPU      3.92s WALL (       2 calls)
     potinit      :      0.41s CPU      0.41s WALL (       2 calls)

     Called by electrons:
     c_bands      :    783.89s CPU    875.03s WALL (      51 calls)
     sum_band     :     19.88s CPU     26.07s WALL (      51 calls)
     v_of_rho     :      0.08s CPU      0.10s WALL (      56 calls)
     mix_rho      :      0.10s CPU      0.12s WALL (      51 calls)

     Called by c_bands:
     init_us_2    :      1.26s CPU      1.52s WALL (    1368 calls)
     ccgdiagg     :    707.93s CPU    781.05s WALL (     714 calls)
     wfcrot       :     77.66s CPU     95.55s WALL (     726 calls)

     Called by *cgdiagg:
     h_psi        :    501.17s CPU    578.14s WALL (  425502 calls)
     cdiaghg      :      4.61s CPU      5.02s WALL (     726 calls)

     Called by h_psi:
     add_vuspsi   :     76.64s CPU     84.89s WALL (  425502 calls)

     General routines
     calbec       :    203.66s CPU    210.10s WALL (  850398 calls)
     fft          :      0.18s CPU      0.20s WALL (     247 calls)
     fftw         :    309.05s CPU    357.39s WALL ( 1097232 calls)
     davcio       :      0.72s CPU      1.86s WALL (    1980 calls)
 
     Parallel routines
     fft_scatter  :    141.03s CPU    162.35s WALL ( 1097479 calls)
 
     PWSCF        : 13m45.06s CPU    15m46.55s WALL

 
   This run was terminated on:  23: 4:40  22Mar2018            

=------------------------------------------------------------------------------=
   JOB DONE.
=------------------------------------------------------------------------------=
