
     Program PWSCF v.5.0.2 starts on 22Mar2018 at 22:49: 0 

     This program is part of the open-source Quantum ESPRESSO suite
     for quantum simulation of materials; please cite
         "P. Giannozzi et al., J. Phys.:Condens. Matter 21 395502 (2009);
          URL http://www.quantum-espresso.org", 
     in publications or presentations arising from this work. More details at
     http://www.quantum-espresso.org/quote.php

     Parallel version (MPI), running on     4 processors
     R & G space division:  proc/nbgrp/npool/nimage =       4

     Current dimensions of program PWSCF are:
     Max number of different atomic species (ntypx) = 10
     Max number of k-points (npk) =  40000
     Max angular momentum in pseudopotentials (lmaxx) =  3
     Waiting for input...
     Reading input from standard input

     Subspace diagonalization in iterative solution of the eigenvalue problem:
     a serial algorithm will be used

 
     Parallelization info
     --------------------
     sticks:   dense  smooth     PW     G-vecs:    dense   smooth      PW
     Min         207     207     61                 7381     7381    1191
     Max         208     208     62                 7386     7386    1192
     Sum         829     829    247                29529    29529    4767
 


     bravais-lattice index     =            0
     lattice parameter (alat)  =       7.0151  a.u.
     unit-cell volume          =     862.2778 (a.u.)^3
     number of atoms/cell      =           12
     number of atomic types    =            2
     number of electrons       =       208.00
     number of Kohn-Sham states=          125
     kinetic-energy cutoff     =      40.0000  Ry
     charge density cutoff     =     160.0000  Ry
     convergence threshold     =      1.0E-04
     mixing beta               =       0.7000
     number of iterations used =            8  plain     mixing
     Exchange-correlation      = SLA-PZ-NOGX-NOGC ( 1 1 0 0 0)
     EXX-fraction              =        0.00
     nstep                     =           50


     celldm(1)=   7.015105  celldm(2)=   0.000000  celldm(3)=   0.000000
     celldm(4)=   0.000000  celldm(5)=   0.000000  celldm(6)=   0.000000

     crystal axes: (cart. coord. in units of alat)
               a(1) = (   1.000000   0.000000   0.000000 )  
               a(2) = (   0.000000   1.315963   0.000000 )  
               a(3) = (   0.000000   0.000000   1.898020 )  

     reciprocal axes: (cart. coord. in units 2 pi/alat)
               b(1) = (  1.000000  0.000000  0.000000 )  
               b(2) = (  0.000000  0.759900  0.000000 )  
               b(3) = (  0.000000  0.000000  0.526865 )  


     PseudoPot. # 1 for Gd read from file:
     /home/cwx6513/pp.La/Gd.UPF
     MD5 check sum: 09a8be538722f05520810cb6aac0efd2
     Pseudo is Norm-conserving, Zval = 18.0
     Generated in analytical, separable form
     Using radial grid of 1263 points,  6 beta functions with: 
                l(1) =   0
                l(2) =   0
                l(3) =   1
                l(4) =   1
                l(5) =   2
                l(6) =   3

     PseudoPot. # 2 for Sm read from file:
     /home/cwx6513/pp.La/Sm.UPF
     MD5 check sum: 5079e8b144a06bfcdbc14fb02b96ab09
     Pseudo is Norm-conserving, Zval = 16.0
     Generated in analytical, separable form
     Using radial grid of 1259 points,  6 beta functions with: 
                l(1) =   0
                l(2) =   0
                l(3) =   1
                l(4) =   1
                l(5) =   2
                l(6) =   3

     atomic species   valence    mass     pseudopotential
        Co            18.00    58.93320     Gd( 1.00)
        Si            16.00    28.08550     Sm( 1.00)

      8 Sym. Ops., with inversion, found ( 6 have fractional translation)



   Cartesian axes

     site n.     atom                  positions (alat units)
         1           Co  tau(   1) = (   0.7500000   1.0875135   0.8270358  )
         2           Co  tau(   2) = (   0.2500000   0.2284499   1.0709846  )
         3           Co  tau(   3) = (   0.7500000   0.4295318   0.1219744  )
         4           Co  tau(   4) = (   0.2500000   0.8864316   1.7760460  )
         5           Co  tau(   5) = (   0.2500000   0.7067855   0.5358966  )
         6           Co  tau(   6) = (   0.7500000   0.6091779   1.3621238  )
         7           Co  tau(   7) = (   0.2500000   0.0488038   0.4131136  )
         8           Co  tau(   8) = (   0.7500000   1.2671596   1.4849068  )
         9           Si  tau(   9) = (   0.2500000   0.2669484   1.6960710  )
        10           Si  tau(  10) = (   0.7500000   1.0490149   0.2019494  )
        11           Si  tau(  11) = (   0.2500000   0.9249301   1.1509596  )
        12           Si  tau(  12) = (   0.7500000   0.3910333   0.7470608  )

     number of k points=    12  gaussian smearing, width (Ry)=  0.1000
                       cart. coord. in units 2pi/alat
        k(    1) = (   0.0000000   0.0000000   0.0000000), wk =   0.0833333
        k(    2) = (   0.0000000   0.0000000   0.1317162), wk =   0.1666667
        k(    3) = (   0.0000000   0.0000000  -0.2634324), wk =   0.0833333
        k(    4) = (   0.0000000   0.2532999   0.0000000), wk =   0.1666667
        k(    5) = (   0.0000000   0.2532999   0.1317162), wk =   0.3333333
        k(    6) = (   0.0000000   0.2532999  -0.2634324), wk =   0.1666667
        k(    7) = (  -0.5000000   0.0000000   0.0000000), wk =   0.0833333
        k(    8) = (  -0.5000000   0.0000000   0.1317162), wk =   0.1666667
        k(    9) = (  -0.5000000   0.0000000  -0.2634324), wk =   0.0833333
        k(   10) = (  -0.5000000   0.2532999   0.0000000), wk =   0.1666667
        k(   11) = (  -0.5000000   0.2532999   0.1317162), wk =   0.3333333
        k(   12) = (  -0.5000000   0.2532999  -0.2634324), wk =   0.1666667

     Dense  grid:    29529 G-vectors     FFT dimensions: (  30,  40,  54)

     Largest allocated arrays     est. size (Mb)     dimensions
        Kohn-Sham Wavefunctions         1.76 Mb     (    922,  125)
        NL pseudopotentials             3.38 Mb     (    922,  240)
        Each V/rho on FFT grid          0.26 Mb     (  16800)
        Each G-vector array             0.06 Mb     (   7386)
        G-vector shells                 0.06 Mb     (   7386)
     Largest temporary arrays     est. size (Mb)     dimensions
        Each subspace H/S matrix        0.24 Mb     ( 125, 125)
        Each <psi_i|beta_j> matrix      0.46 Mb     (    240,  125)
        Arrays for rho mixing           2.05 Mb     (  16800,   8)

     Initial potential from superposition of free atoms

     Starting from uniform charge
     Starting wfc are    0 randomized atomic wfcs

     total cpu time spent up to now is        3.1 secs

     Self-consistent Calculation

     iteration #  1     ecut=    40.00 Ry     beta=0.70
     CG style diagonalization
     ethr =  1.00E-02,  avg # of iterations = 10.1

     total cpu time spent up to now is       27.6 secs

     total energy              =   -2114.26696078 Ry
     Harris-Foulkes estimate   =   -2376.22581970 Ry
     estimated scf accuracy    <     354.62026406 Ry

     iteration #  2     ecut=    40.00 Ry     beta=0.70
     CG style diagonalization
     ethr =  1.00E-02,  avg # of iterations =  6.1

     total cpu time spent up to now is       42.0 secs

     total energy              =   -2185.41090922 Ry
     Harris-Foulkes estimate   =   -2221.28284481 Ry
     estimated scf accuracy    <      49.67984339 Ry

     iteration #  3     ecut=    40.00 Ry     beta=0.70
     CG style diagonalization
     ethr =  1.00E-02,  avg # of iterations =  4.6

     total cpu time spent up to now is       52.7 secs

     total energy              =   -2199.76136951 Ry
     Harris-Foulkes estimate   =   -2213.54076597 Ry
     estimated scf accuracy    <      29.60976671 Ry

     iteration #  4     ecut=    40.00 Ry     beta=0.70
     CG style diagonalization
     ethr =  1.00E-02,  avg # of iterations =  3.6

     total cpu time spent up to now is       61.1 secs

     total energy              =   -2205.15824229 Ry
     Harris-Foulkes estimate   =   -2205.61110587 Ry
     estimated scf accuracy    <       0.86406290 Ry

     iteration #  5     ecut=    40.00 Ry     beta=0.70
     CG style diagonalization
     ethr =  4.15E-04,  avg # of iterations =  4.4

     total cpu time spent up to now is       71.5 secs

     total energy              =   -2205.57260846 Ry
     Harris-Foulkes estimate   =   -2205.63969239 Ry
     estimated scf accuracy    <       0.13025641 Ry

     iteration #  6     ecut=    40.00 Ry     beta=0.70
     CG style diagonalization
     c_bands:  1 eigenvalues not converged
     c_bands:  1 eigenvalues not converged
     c_bands:  1 eigenvalues not converged
     ethr =  6.26E-05,  avg # of iterations =  4.1

     total cpu time spent up to now is       81.0 secs

     total energy              =   -2205.60033075 Ry
     Harris-Foulkes estimate   =   -2205.62620648 Ry
     estimated scf accuracy    <       0.05873297 Ry

     iteration #  7     ecut=    40.00 Ry     beta=0.70
     CG style diagonalization
     c_bands:  1 eigenvalues not converged
     ethr =  2.82E-05,  avg # of iterations =  3.6

     total cpu time spent up to now is       88.6 secs

     total energy              =   -2205.61058766 Ry
     Harris-Foulkes estimate   =   -2205.61332205 Ry
     estimated scf accuracy    <       0.00639085 Ry

     iteration #  8     ecut=    40.00 Ry     beta=0.70
     CG style diagonalization
     c_bands:  1 eigenvalues not converged
     c_bands:  1 eigenvalues not converged
     ethr =  3.07E-06,  avg # of iterations =  4.0

     total cpu time spent up to now is       98.1 secs

     total energy              =   -2205.61161420 Ry
     Harris-Foulkes estimate   =   -2205.61184169 Ry
     estimated scf accuracy    <       0.00044995 Ry

     iteration #  9     ecut=    40.00 Ry     beta=0.70
     CG style diagonalization
     ethr =  2.16E-07,  avg # of iterations =  4.4

     total cpu time spent up to now is      107.4 secs

     End of self-consistent calculation

          k = 0.0000 0.0000 0.0000 (  3675 PWs)   bands (ev):

   -23.3076 -22.8929 -22.8213 -22.6085 -22.5273 -22.4010 -22.3860 -22.3659
   -10.7358 -10.7046 -10.6360 -10.4719   3.5604   3.8886   4.2793   4.3396
     4.4493   4.7271   4.7669   4.8811   4.9761   5.2290   5.5925   5.6494
     5.7030   5.7446   5.7639   5.8336   5.9910   6.2961   6.3227   6.4222
     6.6215   6.6930   7.1658   7.3248  13.3928  13.5456  13.6015  13.6183
    13.8418  14.0740  14.2052  14.2255  14.2614  14.3585  14.4633  14.5289
    33.2470  33.2620  33.4038  34.1049  34.1234  34.3150  34.4905  34.7625
    34.8808  35.9381  36.1005  36.5103  36.9451  37.2090  37.5696  37.5805
    37.8119  38.2583  38.4857  39.0506  39.4958  39.7472  39.8792  40.3102
    40.3211  40.3968  40.8843  41.1889  41.1914  41.7037  41.7398  41.8070
    41.8964  42.4520  42.4993  42.6459  43.1774  43.6757  44.0171  44.8743
    44.9277  45.0310  45.2926  45.3302  46.1881  46.3396  46.9249  47.2189
    47.7577  47.8863  47.8965  48.8006  49.1745  49.2012  49.3724  49.4025
    50.1876  50.6447  50.8775  51.0474  51.0878  51.7475  52.4490  53.2149
    53.4660  55.2102  55.3958  55.6853  55.9344  56.1394  56.5373  56.8291
    57.1235  57.1914  57.2753  57.6383  58.4552

          k = 0.0000 0.0000 0.1317 (  3675 PWs)   bands (ev):

   -23.2722 -23.0259 -22.7048 -22.6105 -22.5207 -22.4162 -22.3910 -22.3702
   -10.7339 -10.6572 -10.6558 -10.5003   3.6497   3.9350   4.1725   4.2818
     4.3501   4.5048   4.6407   5.0902   5.1107   5.1934   5.4860   5.5879
     5.7417   5.7611   5.7629   6.0236   6.0414   6.2410   6.3367   6.4922
     6.6122   6.8177   7.1906   7.2964  13.4263  13.5692  13.5913  13.6439
    13.7816  14.0471  14.1270  14.2066  14.2290  14.3387  14.4775  14.5187
    33.0584  33.2973  33.6385  33.7221  33.8262  34.3144  34.7851  34.9733
    35.3710  35.7832  36.6836  37.0864  37.2579  37.3580  37.4962  37.5947
    37.9419  38.0837  38.3987  39.0158  39.2752  39.4041  39.6473  39.8511
    39.9807  40.1911  40.6068  40.7787  40.9268  41.2405  41.4316  41.4734
    42.5487  42.6372  43.1367  43.4108  43.5906  44.1633  44.1963  44.3808
    44.4941  44.8157  45.2064  45.5431  45.7501  46.0702  46.7830  47.0217
    47.5932  47.8705  48.3230  48.5932  49.0611  49.2075  49.4026  49.5820
    50.3740  50.4327  50.8257  50.8768  51.0266  52.0503  52.6954  53.2381
    55.0807  55.3471  55.4070  55.5979  56.1552  56.2926  56.4932  56.5572
    57.1677  57.1829  58.0649  58.1878  58.3215

          k = 0.0000 0.0000-0.2634 (  3690 PWs)   bands (ev):

   -23.1734 -23.1734 -22.6238 -22.6238 -22.4820 -22.4820 -22.3801 -22.3801
   -10.7003 -10.7003 -10.5731 -10.5731   3.9015   3.9015   4.0624   4.0624
     4.3576   4.3576   4.7413   4.7413   5.3290   5.3290   5.5002   5.5002
     5.7435   5.7435   6.0128   6.0128   6.1458   6.1458   6.2979   6.2979
     6.8512   6.8512   7.2404   7.2404  13.4993  13.4993  13.6823  13.6823
    13.7927  13.7927  14.1372  14.1372  14.2865  14.2865  14.4963  14.4963
    33.1358  33.1358  33.3674  33.3674  34.1644  34.1644  35.6360  35.6360
    36.0086  36.0086  36.2187  36.2187  37.6290  37.6290  37.8518  37.8518
    37.9464  37.9464  38.7335  38.7335  38.7460  38.7460  39.3249  39.3249
    39.9361  39.9361  40.9592  40.9592  41.1835  41.1835  41.7010  41.7010
    42.1786  42.1786  42.8959  42.8959  43.9015  43.9015  44.3239  44.3239
    45.0255  45.0255  45.1550  45.1550  46.0810  46.0810  46.6102  46.6102
    48.0678  48.0678  48.3893  48.3893  49.0357  49.0357  49.6017  49.6017
    49.7998  49.7998  50.7805  50.7805  51.7483  51.7483  53.8924  53.8925
    55.0593  55.0594  55.7506  55.7507  56.3323  56.3324  56.9725  56.9727
    57.0351  57.0353  58.0164  58.0168  58.1745

          k = 0.0000 0.2533 0.0000 (  3664 PWs)   bands (ev):

   -23.1720 -22.8917 -22.7982 -22.7179 -22.5669 -22.4834 -22.3482 -22.3365
   -10.7658 -10.7586 -10.5816 -10.5091   3.8722   4.3132   4.5506   4.6325
     4.6591   4.6931   4.8081   4.8637   4.9227   5.2165   5.3620   5.6062
     5.6271   5.6889   5.7201   6.1676   6.2146   6.2729   6.3667   6.3727
     6.5534   6.6089   6.7945   6.9940  13.4209  13.4705  13.5285  13.6246
    13.7503  13.8964  13.9185  13.9633  14.1179  14.1623  14.2105  14.2868
    34.0037  34.1571  34.2070  34.2129  34.8185  34.9212  35.2747  35.3802
    35.6044  35.7393  36.4144  36.6810  36.8495  37.1216  37.2791  37.7720
    37.8416  38.1271  38.6301  38.8474  39.0003  39.5972  39.6816  40.0378
    40.4375  40.4862  40.5707  41.0062  41.0701  41.4609  41.6946  42.2444
    42.2876  42.5572  42.9274  43.0969  43.5554  43.6391  44.2100  44.6577
    44.7129  45.0945  45.5758  46.0134  46.0759  46.3174  46.4442  47.0085
    47.1133  47.1648  47.1990  47.9598  48.4200  48.5914  48.6346  49.0300
    49.1676  49.5520  49.6051  50.2300  50.8174  51.3240  51.8445  52.0862
    52.4096  52.7532  55.7348  56.8469  56.8495  57.0945  57.2074  57.2896
    57.3902  57.6973  57.9490  58.2611  58.4046

          k = 0.0000 0.2533 0.1317 (  3669 PWs)   bands (ev):

   -23.1421 -22.9502 -22.8045 -22.7143 -22.5363 -22.4510 -22.3712 -22.3494
   -10.7553 -10.7327 -10.5936 -10.5332   3.9505   4.2079   4.3645   4.4911
     4.5986   4.7681   4.8223   4.8948   5.0308   5.1979   5.3104   5.6465
     5.6601   5.7507   5.8170   6.1085   6.1983   6.2589   6.3483   6.4864
     6.5323   6.7001   6.8314   6.9777  13.4481  13.5057  13.5611  13.6117
    13.7161  13.7744  13.8570  13.9876  14.0407  14.1942  14.2420  14.2544
    33.8550  33.8846  34.1909  34.4180  34.6972  35.0877  35.4442  35.6014
    35.8892  35.8903  36.5948  36.7215  36.8330  37.2330  37.4582  37.6353
    37.9021  38.2035  38.3110  39.0536  39.1942  39.3186  39.6668  39.8953
    40.0233  40.6002  40.8186  40.8240  41.2271  41.4959  41.6977  41.9434
    42.1254  42.4207  42.4849  42.9659  43.6071  43.6805  43.9921  44.6701
    44.9358  44.9651  45.0055  45.5233  45.9879  46.2275  46.4388  47.1948
    47.2541  47.4320  47.8651  48.2642  48.2903  48.4059  48.9064  48.9869
    49.2279  49.3640  49.6657  49.8536  50.5988  50.7204  51.7076  52.2612
    53.0893  54.0199  56.3289  56.4189  56.7315  57.0188  57.1579  57.1610
    57.2848  57.8548  57.9850  58.5010  58.7019

          k = 0.0000 0.2533-0.2634 (  3666 PWs)   bands (ev):

   -23.0591 -23.0591 -22.7642 -22.7642 -22.4554 -22.4554 -22.3806 -22.3806
   -10.7233 -10.7233 -10.5836 -10.5836   4.1739   4.1739   4.1894   4.1894
     4.6955   4.6955   4.8954   4.8954   5.0483   5.0483   5.5052   5.5052
     5.8327   5.8327   5.9881   5.9881   6.1857   6.1857   6.3677   6.3677
     6.7433   6.7433   6.9039   6.9039  13.5308  13.5308  13.6241  13.6241
    13.6512  13.6512  13.8212  13.8212  14.1624  14.1624  14.2295  14.2295
    33.7891  33.7891  34.0485  34.0485  35.2802  35.2802  35.8733  35.8733
    36.0026  36.0026  36.7413  36.7413  36.8219  36.8219  37.8078  37.8078
    37.9923  37.9923  38.6373  38.6373  38.9119  38.9119  39.8304  39.8304
    40.1372  40.1372  40.7761  40.7761  41.6007  41.6007  41.6411  41.6411
    42.3895  42.3895  43.0159  43.0159  43.2521  43.2521  43.9006  43.9006
    44.8592  44.8592  44.9198  44.9198  46.2334  46.2334  46.8256  46.8256
    47.3571  47.3571  48.2120  48.2120  48.5331  48.5331  48.8990  48.8990
    49.2000  49.2000  50.1783  50.1783  50.3582  50.3582  51.6017  51.6017
    55.0702  55.0705  55.9975  55.9976  56.8766  56.8766  57.1113  57.1113
    57.9683  57.9686  58.2053  58.2058  58.4789

          k =-0.5000 0.0000 0.0000 (  3722 PWs)   bands (ev):

   -22.9292 -22.9292 -22.6933 -22.6933 -22.6073 -22.6073 -22.3815 -22.3815
   -10.7837 -10.7837 -10.7287 -10.7287   3.3964   3.3964   4.1067   4.1067
     4.2593   4.2593   4.4612   4.4612   4.9815   4.9815   5.7435   5.7435
     5.8399   5.8399   5.9138   5.9138   6.5790   6.5790   6.7387   6.7387
     6.9277   6.9277   7.2304   7.2304  13.4521  13.4521  13.8984  13.8984
    14.2027  14.2027  14.2792  14.2792  14.4102  14.4102  14.6854  14.6854
    34.0415  34.0415  34.8815  34.8815  35.5199  35.5199  35.9864  35.9864
    36.1965  36.1965  36.3850  36.3850  36.4495  36.4495  36.9044  36.9044
    37.5157  37.5157  37.8649  37.8649  38.2875  38.2875  38.3658  38.3658
    39.4210  39.4210  40.1531  40.1531  40.8545  40.8545  41.4908  41.4908
    41.5812  41.5812  43.0739  43.0739  43.9549  43.9549  44.8995  44.8995
    44.9172  44.9172  45.5998  45.5998  45.6233  45.6233  46.7397  46.7397
    46.9655  46.9655  47.6411  47.6411  48.4338  48.4338  49.6329  49.6329
    50.3542  50.3542  51.2058  51.2058  51.2816  51.2816  51.8536  51.8537
    52.2896  52.2897  53.0763  53.0763  54.7421  54.7422  56.3286  56.3286
    56.7044  56.7045  57.8337  57.8339  59.1200

          k =-0.5000 0.0000 0.1317 (  3710 PWs)   bands (ev):

   -22.9239 -22.9239 -22.7045 -22.7045 -22.5981 -22.5981 -22.3817 -22.3817
   -10.7841 -10.7841 -10.7262 -10.7262   3.4750   3.4750   3.7497   3.7497
     4.2215   4.2215   4.7534   4.7534   5.1941   5.1941   5.4772   5.4772
     5.6922   5.6922   6.1327   6.1327   6.5976   6.5976   6.8016   6.8016
     6.9199   6.9199   7.2313   7.2313  13.4802  13.4802  13.8903  13.8903
    14.1120  14.1120  14.3215  14.3215  14.3924  14.3924  14.6538  14.6538
    34.2849  34.2849  34.5971  34.5971  35.5318  35.5318  35.7155  35.7155
    36.3363  36.3363  36.4361  36.4361  36.8567  36.8567  37.2091  37.2091
    37.3566  37.3566  38.0653  38.0653  38.2647  38.2647  38.5378  38.5378
    39.2449  39.2449  39.7167  39.7167  40.7422  40.7422  41.2673  41.2673
    41.9147  41.9147  43.3281  43.3281  43.6018  43.6018  43.9802  43.9802
    44.9485  44.9485  45.8527  45.8527  46.2144  46.2144  46.2335  46.2335
    47.2871  47.2871  47.5644  47.5644  48.4717  48.4717  49.5841  49.5841
    50.5740  50.5740  51.0431  51.0431  51.3668  51.3668  51.5985  51.5985
    52.0921  52.0921  53.8621  53.8622  55.1914  55.1916  55.6871  55.6871
    56.7150  56.7154  57.5547  57.5548  58.7463

          k =-0.5000 0.0000-0.2634 (  3680 PWs)   bands (ev):

   -22.9149 -22.9149 -22.7154 -22.7154 -22.5893 -22.5893 -22.3819 -22.3819
   -10.7842 -10.7842 -10.7239 -10.7239   3.5276   3.5276   3.6522   3.6522
     4.0565   4.0565   5.0042   5.0042   5.1784   5.1784   5.5697   5.5697
     5.6495   5.6495   6.0013   6.0013   6.7028   6.7028   6.8642   6.8642
     6.8986   6.8986   7.2385   7.2385  13.5384  13.5384  13.8380  13.8380
    14.0490  14.0490  14.3094  14.3094  14.4351  14.4351  14.6047  14.6047
    34.2485  34.2485  35.0207  35.0207  35.0263  35.0263  35.9423  35.9423
    36.0085  36.0085  36.7606  36.7606  37.2334  37.2334  37.3929  37.3929
    37.4136  37.4136  37.8209  37.8209  38.1397  38.1397  38.4678  38.4678
    39.5277  39.5277  39.9327  39.9327  40.5895  40.5895  40.6771  40.6771
    42.3824  42.3824  42.6419  42.6419  43.6564  43.6564  43.7866  43.7866
    45.2533  45.2533  45.2972  45.2972  45.8720  45.8720  46.3195  46.3195
    47.3546  47.3546  48.4335  48.4335  48.8860  48.8860  48.9434  48.9434
    50.7656  50.7656  51.0762  51.0762  51.2861  51.2861  51.3785  51.3785
    52.5655  52.5656  54.0711  54.0712  54.4402  54.4403  55.4993  55.4994
    57.1841  57.1842  57.2325  57.2329  58.5401

          k =-0.5000 0.2533 0.0000 (  3686 PWs)   bands (ev):

   -22.8399 -22.8399 -22.7207 -22.7207 -22.5778 -22.5778 -22.4683 -22.4683
   -10.7940 -10.7940 -10.7665 -10.7665   3.8364   3.8364   4.2255   4.2255
     4.4153   4.4153   4.8754   4.8754   5.1241   5.1241   5.4513   5.4513
     5.5899   5.5899   5.9826   5.9826   6.5319   6.5319   6.6672   6.6672
     6.7994   6.7994   6.9310   6.9310  13.5847  13.5847  13.8084  13.8084
    13.8769  13.8769  14.0150  14.0150  14.4369  14.4369  14.4592  14.4592
    34.7933  34.7933  35.4141  35.4141  35.8966  35.8966  35.9058  35.9058
    36.4284  36.4284  36.4576  36.4576  37.2416  37.2416  37.5295  37.5295
    38.0107  38.0107  38.2118  38.2118  38.6359  38.6359  38.9367  38.9367
    39.3813  39.3813  39.4373  39.4373  40.7545  40.7545  41.3847  41.3847
    41.9957  41.9957  42.8480  42.8480  43.1024  43.1024  43.8077  43.8077
    44.5780  44.5780  45.2632  45.2632  45.9410  45.9410  46.3456  46.3456
    47.2929  47.2929  47.2952  47.2952  47.8484  47.8484  48.7896  48.7896
    49.1771  49.1771  49.1869  49.1869  50.0012  50.0012  51.9938  51.9938
    53.8319  53.8320  54.1655  54.1655  54.9114  54.9115  56.3102  56.3103
    56.6163  56.6166  56.9864  56.9866  58.1177

          k =-0.5000 0.2533 0.1317 (  3692 PWs)   bands (ev):

   -22.8376 -22.8376 -22.7254 -22.7254 -22.5758 -22.5758 -22.4695 -22.4695
   -10.7936 -10.7936 -10.7653 -10.7653   3.7928   3.7928   4.0989   4.0989
     4.5800   4.5800   4.6783   4.6783   5.1638   5.1638   5.4042   5.4042
     5.7741   5.7741   6.1622   6.1622   6.4955   6.4955   6.6030   6.6030
     6.7799   6.7799   6.9340   6.9340  13.6050  13.6050  13.7508  13.7508
    13.9490  13.9490  14.0021  14.0021  14.3555  14.3555  14.4365  14.4365
    34.8159  34.8159  35.2640  35.2640  35.7207  35.7207  36.1886  36.1886
    36.3395  36.3395  36.8953  36.8953  37.3492  37.3492  37.6661  37.6661
    37.8435  37.8435  38.2955  38.2955  38.4641  38.4641  38.7903  38.7903
    39.3904  39.3904  39.9005  39.9005  40.8019  40.8019  41.3493  41.3493
    42.1938  42.1938  42.3852  42.3852  43.0191  43.0191  43.6370  43.6370
    44.4790  44.4790  45.0701  45.0701  45.8696  45.8696  46.3350  46.3350
    46.6681  46.6681  47.0893  47.0893  47.5894  47.5894  48.2967  48.2967
    49.4399  49.4399  49.7004  49.7004  50.5132  50.5132  52.5009  52.5011
    53.5873  53.5874  54.3894  54.3894  54.9382  54.9383  56.2971  56.2972
    56.6373  56.6374  57.7490  57.7492  58.4478

          k =-0.5000 0.2533-0.2634 (  3704 PWs)   bands (ev):

   -22.8332 -22.8332 -22.7310 -22.7310 -22.5757 -22.5757 -22.4716 -22.4716
   -10.7934 -10.7934 -10.7641 -10.7641   3.6973   3.6973   4.2939   4.2939
     4.3093   4.3093   4.6292   4.6292   5.2320   5.2320   5.4220   5.4220
     5.9270   5.9270   6.3329   6.3329   6.4642   6.4642   6.4674   6.4674
     6.8277   6.8277   6.8917   6.8917  13.6428  13.6428  13.6978  13.6978
    13.9845  13.9845  14.0075  14.0075  14.2896  14.2896  14.3908  14.3908
    34.6377  34.6377  35.5018  35.5018  35.6439  35.6439  36.3041  36.3041
    36.6322  36.6322  36.8367  36.8367  37.2118  37.2118  37.6662  37.6662
    37.8714  37.8714  38.1517  38.1517  38.6294  38.6294  39.1434  39.1434
    39.2927  39.2927  40.3938  40.3938  40.5015  40.5015  41.2567  41.2567
    41.6284  41.6284  42.9241  42.9241  43.1087  43.1087  43.5482  43.5482
    44.2625  44.2625  44.7412  44.7412  45.6649  45.6649  45.9939  45.9939
    46.1807  46.1807  46.8722  46.8722  47.3938  47.3938  48.0472  48.0472
    49.8283  49.8283  50.0637  50.0637  51.8824  51.8824  52.0600  52.0600
    53.4145  53.4145  54.4969  54.4969  54.8166  54.8166  56.5323  56.5324
    56.9120  56.9120  58.2261  58.2266  58.6382

     the Fermi energy is    49.2976 ev

!    total energy              =   -2205.61183798 Ry
     Harris-Foulkes estimate   =   -2205.61188344 Ry
     estimated scf accuracy    <       0.00005042 Ry

     The total energy is the sum of the following terms:

     one-electron contribution =     414.28283798 Ry
     hartree contribution      =     126.30895663 Ry
     xc contribution           =    -241.85140263 Ry
     ewald contribution        =   -2503.93721407 Ry
     smearing contrib. (-TS)   =      -0.41501588 Ry

     convergence has been achieved in   9 iterations

     Forces acting on atoms (Ry/au):

     atom    1 type  1   force =     0.00000000   -0.05842953   -0.06526054
     atom    2 type  1   force =     0.00000000    0.05842953    0.06526054
     atom    3 type  1   force =     0.00000000   -0.05842953    0.06526054
     atom    4 type  1   force =     0.00000000    0.05842953   -0.06526054
     atom    5 type  1   force =     0.00000000    0.16787580   -0.26138090
     atom    6 type  1   force =     0.00000000   -0.16787580    0.26138090
     atom    7 type  1   force =     0.00000000    0.16787580    0.26138090
     atom    8 type  1   force =     0.00000000   -0.16787580   -0.26138090
     atom    9 type  2   force =     0.00000000   -0.17394017   -0.00591550
     atom   10 type  2   force =     0.00000000    0.17394017    0.00591550
     atom   11 type  2   force =     0.00000000   -0.17394017    0.00591550
     atom   12 type  2   force =     0.00000000    0.17394017   -0.00591550

     Total force =     0.733390     Total SCF correction =     0.000000


     entering subroutine stress ...

          total   stress  (Ry/bohr**3)                   (kbar)     P= 6734.02
   0.04814355   0.00000000   0.00000000       7082.16      0.00      0.00
   0.00000000   0.04341265   0.00000000          0.00   6386.22      0.00
   0.00000000   0.00000000   0.04577474          0.00      0.00   6733.69


     BFGS Geometry Optimization

     number of scf cycles    =   1
     number of bfgs steps    =   0

     enthalpy new            =   -2205.6118379802 Ry

     new trust radius        =       0.5000000000 bohr
     new conv_thr            =       0.0001000000 Ry

     new unit-cell volume =   1089.07918 a.u.^3 (   161.38488 Ang^3 )

CELL_PARAMETERS (alat=  7.01510508)
   1.085136619   0.000000000   0.000000000
   0.000000000   1.416990588   0.000000000
   0.000000000   0.000000000   2.051660651

ATOMIC_POSITIONS (crystal)
Co       0.750000000   0.825953294   0.435389300
Co       0.250000000   0.174046706   0.564610700
Co       0.750000000   0.325953294   0.064610700
Co       0.250000000   0.674046706   0.935389300
Co       0.250000000   0.538372318   0.280956400
Co       0.750000000   0.461627682   0.719043600
Co       0.250000000   0.038372318   0.219043600
Co       0.750000000   0.961627682   0.780956400
Si       0.250000000   0.201521215   0.893568574
Si       0.750000000   0.798478785   0.106431426
Si       0.250000000   0.701521215   0.606431426
Si       0.750000000   0.298478785   0.393568574



     Writing output data file Prototype-La-oP12-Co2Si.save
     NEW-OLD atomic charge density approx. for the potential
     NEW k-points:
        k(    1) = (   0.0000000   0.0000000   0.0000000), wk =   0.0833333
        k(    2) = (   0.0000000   0.0000000   0.1218525), wk =   0.1666667
        k(    3) = (   0.0000000   0.0000000  -0.2437050), wk =   0.0833333
        k(    4) = (   0.0000000   0.2352403   0.0000000), wk =   0.1666667
        k(    5) = (   0.0000000   0.2352403   0.1218525), wk =   0.3333333
        k(    6) = (   0.0000000   0.2352403  -0.2437050), wk =   0.1666667
        k(    7) = (  -0.4607715   0.0000000   0.0000000), wk =   0.0833333
        k(    8) = (  -0.4607715   0.0000000   0.1218525), wk =   0.1666667
        k(    9) = (  -0.4607715   0.0000000  -0.2437050), wk =   0.0833333
        k(   10) = (  -0.4607715   0.2352403   0.0000000), wk =   0.1666667
        k(   11) = (  -0.4607715   0.2352403   0.1218525), wk =   0.3333333
        k(   12) = (  -0.4607715   0.2352403  -0.2437050), wk =   0.1666667

     total cpu time spent up to now is      111.5 secs

     Self-consistent Calculation

     iteration #  1     ecut=    40.00 Ry     beta=0.70
     CG style diagonalization
     c_bands:  2 eigenvalues not converged
     c_bands:  1 eigenvalues not converged
     c_bands:  1 eigenvalues not converged
     c_bands:  1 eigenvalues not converged
     c_bands:  1 eigenvalues not converged
     c_bands:  1 eigenvalues not converged
     ethr =  1.00E-06,  avg # of iterations = 21.8

     total cpu time spent up to now is      158.0 secs

     total energy              =   -2203.81000398 Ry
     Harris-Foulkes estimate   =   -2222.70742982 Ry
     estimated scf accuracy    <      24.70112354 Ry

     iteration #  2     ecut=    40.00 Ry     beta=0.70
     CG style diagonalization
     ethr =  1.00E-02,  avg # of iterations =  3.8

     total cpu time spent up to now is      166.6 secs

     total energy              =   -2208.63471097 Ry
     Harris-Foulkes estimate   =   -2214.20679116 Ry
     estimated scf accuracy    <       8.68783201 Ry

     iteration #  3     ecut=    40.00 Ry     beta=0.70
     CG style diagonalization
     ethr =  4.18E-03,  avg # of iterations =  3.6

     total cpu time spent up to now is      174.9 secs

     total energy              =   -2211.20695734 Ry
     Harris-Foulkes estimate   =   -2213.03235325 Ry
     estimated scf accuracy    <       4.20184311 Ry

     iteration #  4     ecut=    40.00 Ry     beta=0.70
     CG style diagonalization
     ethr =  2.02E-03,  avg # of iterations =  3.3

     total cpu time spent up to now is      182.4 secs

     total energy              =   -2211.86039023 Ry
     Harris-Foulkes estimate   =   -2211.88716389 Ry
     estimated scf accuracy    <       0.05816972 Ry

     iteration #  5     ecut=    40.00 Ry     beta=0.70
     CG style diagonalization
     ethr =  2.80E-05,  avg # of iterations =  4.6

     total cpu time spent up to now is      193.2 secs

     total energy              =   -2211.89504604 Ry
     Harris-Foulkes estimate   =   -2211.89968724 Ry
     estimated scf accuracy    <       0.01115415 Ry

     iteration #  6     ecut=    40.00 Ry     beta=0.70
     CG style diagonalization
     c_bands:  1 eigenvalues not converged
     ethr =  5.36E-06,  avg # of iterations =  3.7

     total cpu time spent up to now is      201.8 secs

     total energy              =   -2211.89617468 Ry
     Harris-Foulkes estimate   =   -2211.89757977 Ry
     estimated scf accuracy    <       0.00389412 Ry

     iteration #  7     ecut=    40.00 Ry     beta=0.70
     CG style diagonalization
     c_bands:  1 eigenvalues not converged
     ethr =  1.87E-06,  avg # of iterations =  3.3

     total cpu time spent up to now is      209.5 secs

     total energy              =   -2211.89657219 Ry
     Harris-Foulkes estimate   =   -2211.89669335 Ry
     estimated scf accuracy    <       0.00025690 Ry

     iteration #  8     ecut=    40.00 Ry     beta=0.70
     CG style diagonalization
     ethr =  1.24E-07,  avg # of iterations =  3.8

     total cpu time spent up to now is      217.7 secs

     End of self-consistent calculation

          k = 0.0000 0.0000 0.0000 (  3675 PWs)   bands (ev):

   -32.4445 -32.2920 -32.2844 -32.2328 -32.1988 -32.1143 -32.0659 -32.0562
   -20.5759 -20.5689 -20.5470 -20.5306  -4.4387  -4.3988  -4.1198  -4.1194
    -4.0662  -3.9025  -3.8328  -3.7458  -3.7447  -3.7428  -3.4571  -3.4440
    -3.3847  -3.3779  -3.3649  -3.3385  -3.1753  -3.1604  -3.1029  -3.0499
    -2.9276  -2.8897  -2.6175  -2.5435   3.8478   3.8825   3.9253   3.9602
     3.9968   4.1231   4.1426   4.2048   4.2297   4.2431   4.3668   4.4114
    25.8845  26.1633  26.2215  26.6576  26.7199  26.7350  26.9124  26.9633
    27.2149  27.5561  27.8423  28.0293  28.4039  28.6888  28.8380  29.0080
    29.2004  29.2074  29.6493  30.1511  30.5742  30.7865  30.8581  30.8838
    30.9571  30.9727  31.0834  31.4271  31.7213  31.8381  31.9267  32.0571
    32.2528  32.4790  32.5788  32.6149  33.1156  33.2698  33.4678  34.4229
    34.5232  34.8935  35.0089  35.0650  35.0931  35.8128  35.9993  36.2159
    36.6213  36.7351  37.1136  37.6171  37.6402  37.7832  37.8809  37.9165
    39.0154  39.0421  39.1198  39.1781  39.2153  39.8921  40.2621  40.4415
    40.8141  42.7718  43.2946  43.9419  44.4381  44.9804  45.2271  45.9749
    46.4975  46.8420  47.2126  47.4989  48.2501

          k = 0.0000 0.0000 0.1219 (  3675 PWs)   bands (ev):

   -32.4309 -32.3405 -32.2480 -32.2388 -32.1875 -32.1323 -32.0625 -32.0496
   -20.5712 -20.5626 -20.5524 -20.5363  -4.3903  -4.3749  -4.1792  -4.1481
    -4.0865  -3.9887  -3.9305  -3.7371  -3.6911  -3.6746  -3.5205  -3.4575
    -3.3773  -3.3627  -3.3479  -3.2680  -3.1589  -3.1581  -3.0737  -2.9934
    -2.9778  -2.8564  -2.6091  -2.5624   3.8679   3.9023   3.9382   3.9488
     3.9685   4.1042   4.1378   4.1990   4.2273   4.2386   4.3690   4.3993
    25.9988  26.0341  26.3207  26.3321  26.3809  26.8040  27.1613  27.2283
    27.4787  27.7921  27.8258  28.4512  28.7348  28.8068  29.0050  29.0140
    29.0251  29.0533  29.4458  30.1384  30.2741  30.4773  30.5376  30.5569
    30.7072  30.7673  31.0377  31.4641  31.5219  31.5689  31.7179  31.7491
    32.5534  32.8137  32.9748  33.3050  33.3577  33.6703  33.7751  34.0654
    34.2703  34.5825  34.6668  35.0213  35.1061  35.7795  35.8124  35.9632
    36.5459  36.8307  37.4289  37.5049  37.5387  37.7071  37.9701  38.1127
    38.4543  38.7932  39.0975  39.2052  39.3404  39.9412  40.4424  41.0032
    42.4175  42.4989  43.5399  43.9586  44.2164  45.5410  45.7166  46.0544
    46.2079  46.3048  46.7951  47.0187  47.2189

          k = 0.0000 0.0000-0.2437 (  3690 PWs)   bands (ev):

   -32.4021 -32.4021 -32.2374 -32.2374 -32.1593 -32.1593 -32.0596 -32.0596
   -20.5640 -20.5640 -20.5496 -20.5496  -4.3027  -4.3027  -4.2632  -4.2632
    -4.0847  -4.0847  -3.8724  -3.8724  -3.5988  -3.5988  -3.5227  -3.5227
    -3.3624  -3.3624  -3.2914  -3.2914  -3.1276  -3.1276  -3.0947  -3.0947
    -2.8860  -2.8860  -2.5919  -2.5919   3.9047   3.9047   3.9340   3.9340
     4.0070   4.0070   4.1730   4.1730   4.2275   4.2275   4.3788   4.3788
    26.0428  26.0428  26.0721  26.0721  26.6596  26.6596  27.6575  27.6575
    27.9294  27.9294  28.1033  28.1033  28.4847  28.4847  29.1745  29.1745
    29.2181  29.2181  29.5288  29.5288  29.9413  29.9413  30.3917  30.3917
    30.4749  30.4749  31.6084  31.6084  31.6599  31.6599  31.8160  31.8160
    32.4382  32.4382  32.8438  32.8438  33.9048  33.9048  34.0433  34.0433
    34.5037  34.5037  34.8258  34.8258  35.1153  35.1153  35.7179  35.7179
    37.1258  37.1258  37.2073  37.2073  37.4984  37.4984  38.2036  38.2036
    38.2255  38.2255  39.0957  39.0957  39.7132  39.7132  41.5260  41.5260
    42.8997  42.8997  43.9337  43.9337  44.6822  44.6823  45.6375  45.6375
    46.3000  46.3002  46.4855  46.4855  47.5274

          k = 0.0000 0.2352 0.0000 (  3664 PWs)   bands (ev):

   -32.3926 -32.3087 -32.2494 -32.2471 -32.1862 -32.1101 -32.1030 -32.0689
   -20.5836 -20.5823 -20.5356 -20.5329  -4.2776  -4.1648  -3.9978  -3.9437
    -3.9130  -3.9036  -3.8765  -3.8506  -3.7636  -3.6814  -3.6162  -3.4627
    -3.4479  -3.3917  -3.3059  -3.1892  -3.1038  -3.1020  -3.0845  -3.0555
    -2.9815  -2.9201  -2.8536  -2.7686   3.8560   3.8641   3.8928   3.9923
     3.9956   4.0205   4.0568   4.1376   4.1472   4.1821   4.2680   4.3084
    26.5558  26.7517  26.8040  26.9070  27.1242  27.1694  27.3553  27.5316
    27.7421  27.8665  28.1791  28.3388  28.4743  28.7456  28.7909  29.0471
    29.1445  29.2917  29.3066  29.6324  29.9560  30.3877  30.6348  30.7472
    30.8378  30.9528  31.0773  31.4966  31.5498  31.7124  32.1567  32.2189
    32.3033  32.4415  32.8669  32.8780  33.5029  33.6226  33.6715  34.1925
    34.2890  34.6215  35.0539  35.1526  35.1946  35.2087  35.8025  36.0880
    36.1151  36.3516  36.4191  37.1298  37.1536  37.2499  37.6660  37.7497
    37.8774  37.9727  38.0491  38.5041  38.8601  39.0840  39.7697  40.0133
    40.0723  40.2793  44.4097  45.2357  45.3860  45.9956  46.4671  46.7260
    46.8283  46.9141  46.9772  47.4754  48.1503

          k = 0.0000 0.2352 0.1219 (  3669 PWs)   bands (ev):

   -32.3842 -32.3229 -32.2698 -32.2432 -32.1670 -32.1144 -32.1003 -32.0775
   -20.5832 -20.5797 -20.5390 -20.5356  -4.2401  -4.1988  -4.0816  -4.0042
    -3.9904  -3.8783  -3.8304  -3.8286  -3.7432  -3.6624  -3.6315  -3.4672
    -3.4065  -3.3563  -3.2825  -3.2195  -3.1484  -3.1313  -3.0857  -3.0143
    -2.9738  -2.8925  -2.8312  -2.7758   3.8656   3.8744   3.9064   3.9696
     3.9872   3.9903   4.0888   4.1118   4.1184   4.1728   4.2823   4.3130
    26.4727  26.6175  26.6633  26.9461  26.9523  27.3145  27.6263  27.6786
    27.8621  28.0783  28.3257  28.4854  28.6286  28.6307  28.7979  29.1751
    29.2031  29.2648  29.3323  29.7160  29.8372  30.3159  30.4758  30.5766
    30.7325  31.0337  31.0762  31.3904  31.5948  31.7568  31.9076  32.1993
    32.2002  32.5382  32.5682  32.8316  33.1900  33.6422  33.7346  34.0145
    34.3395  34.4248  34.5313  35.0173  35.1331  35.4131  35.8922  36.2594
    36.2826  36.4804  36.6581  36.9646  37.1473  37.2259  37.5805  37.7429
    37.9786  37.9952  38.0503  38.3265  38.7705  38.8209  39.6964  39.9997
    40.8776  41.6017  44.7891  44.9972  45.3952  45.6879  46.2557  46.5365
    46.6690  46.9792  46.9840  47.5440  47.6929

          k = 0.0000 0.2352-0.2437 (  3666 PWs)   bands (ev):

   -32.3563 -32.3563 -32.2613 -32.2613 -32.1314 -32.1314 -32.0887 -32.0887
   -20.5789 -20.5789 -20.5396 -20.5396  -4.1835  -4.1835  -4.1351  -4.1351
    -3.9457  -3.9457  -3.7851  -3.7851  -3.7343  -3.7343  -3.5343  -3.5343
    -3.2904  -3.2904  -3.2776  -3.2776  -3.1729  -3.1729  -3.0679  -3.0679
    -2.8982  -2.8982  -2.7936  -2.7936   3.8940   3.8940   3.9444   3.9444
     3.9521   3.9521   4.0958   4.0958   4.1348   4.1348   4.3039   4.3039
    26.3956  26.3956  26.6862  26.6862  27.3528  27.3528  27.8722  27.8722
    28.0928  28.0928  28.4672  28.4672  28.5933  28.5933  29.0320  29.0320
    29.4251  29.4251  29.5194  29.5194  29.8668  29.8668  30.5018  30.5018
    30.5723  30.5723  31.3025  31.3025  31.7831  31.7831  31.8851  31.8851
    32.4758  32.4758  32.8832  32.8832  32.9991  32.9991  33.5655  33.5655
    34.3327  34.3327  34.6238  34.6238  35.3284  35.3284  36.0907  36.0907
    36.5331  36.5331  37.0019  37.0019  37.1739  37.1739  37.4693  37.4693
    37.8940  37.8940  38.5771  38.5771  38.6340  38.6340  39.6099  39.6099
    42.7613  42.7613  44.1503  44.1503  45.6866  45.6868  46.0970  46.0970
    46.6221  46.6222  47.3982  47.5404  47.5405

          k =-0.4608 0.0000 0.0000 (  3722 PWs)   bands (ev):

   -32.3191 -32.3191 -32.2654 -32.2654 -32.2194 -32.2194 -32.0782 -32.0782
   -20.5947 -20.5947 -20.5745 -20.5745  -4.5474  -4.5474  -4.1882  -4.1882
    -4.1714  -4.1714  -3.9885  -3.9885  -3.7583  -3.7583  -3.4682  -3.4682
    -3.3279  -3.3279  -3.3216  -3.3216  -3.0065  -3.0065  -2.9246  -2.9246
    -2.8340  -2.8340  -2.6016  -2.6016   3.8427   3.8427   4.0014   4.0014
     4.1815   4.1815   4.2078   4.2078   4.3098   4.3098   4.3652   4.3652
    26.4207  26.4207  26.9464  26.9464  27.5186  27.5186  28.0161  28.0161
    28.0505  28.0505  28.2070  28.2070  28.3530  28.3530  28.7463  28.7463
    29.1332  29.1332  29.4165  29.4165  29.5712  29.5712  29.6830  29.6830
    30.6536  30.6536  30.9906  30.9906  31.2404  31.2404  32.1083  32.1083
    32.2016  32.2016  33.2218  33.2218  33.3738  33.3738  34.1781  34.1781
    34.8153  34.8153  35.2866  35.2866  35.5287  35.5287  35.8373  35.8373
    35.8389  35.8389  36.8374  36.8374  36.8662  36.8662  38.1615  38.1615
    38.6352  38.6352  38.9431  38.9431  39.5336  39.5336  39.9219  39.9219
    40.1735  40.1735  40.6786  40.6786  44.6666  44.6666  45.0340  45.0340
    46.0866  46.0867  46.5131  46.5131  46.9496

          k =-0.4608 0.0000 0.1219 (  3710 PWs)   bands (ev):

   -32.3173 -32.3173 -32.2617 -32.2617 -32.2134 -32.2134 -32.0766 -32.0766
   -20.5939 -20.5939 -20.5727 -20.5727  -4.5158  -4.5158  -4.3625  -4.3625
    -4.0897  -4.0897  -3.9282  -3.9282  -3.6533  -3.6533  -3.5168  -3.5168
    -3.4786  -3.4786  -3.2113  -3.2113  -2.9990  -2.9990  -2.8960  -2.8960
    -2.8350  -2.8350  -2.6041  -2.6041   3.8430   3.8430   4.0215   4.0215
     4.1606   4.1606   4.2018   4.2018   4.3127   4.3127   4.3615   4.3615
    26.5889  26.5889  26.7493  26.7493  27.6131  27.6131  27.7755  27.7755
    28.1661  28.1661  28.3012  28.3012  28.4433  28.4433  28.9333  28.9333
    29.0931  29.0931  29.4391  29.4391  29.7273  29.7273  29.8394  29.8394
    30.4481  30.4481  30.6903  30.6903  31.6044  31.6044  31.7794  31.7794
    32.2259  32.2259  32.7080  32.7080  33.3614  33.3614  33.9270  33.9270
    34.6843  34.6843  35.3936  35.3936  35.6901  35.6901  35.8407  35.8407
    36.0523  36.0523  36.6899  36.6899  37.1556  37.1556  38.0983  38.0983
    38.8133  38.8133  39.1491  39.1491  39.3776  39.3775  39.6577  39.6577
    40.0641  40.0641  41.5697  41.5697  43.6573  43.6573  45.0449  45.0449
    46.3824  46.3825  46.8656  46.8656  47.6343

          k =-0.4608 0.0000-0.2437 (  3680 PWs)   bands (ev):

   -32.3012 -32.3012 -32.2599 -32.2599 -32.2026 -32.2026 -32.0760 -32.0760
   -20.5902 -20.5902 -20.5710 -20.5710  -4.4900  -4.4900  -4.4108  -4.4108
    -4.1497  -4.1497  -3.7673  -3.7673  -3.6470  -3.6470  -3.5270  -3.5270
    -3.5132  -3.5132  -3.2278  -3.2278  -2.9766  -2.9766  -2.8554  -2.8554
    -2.8285  -2.8285  -2.5942  -2.5942   3.8483   3.8483   4.0417   4.0417
     4.1467   4.1467   4.1921   4.1921   4.3162   4.3162   4.3580   4.3580
    26.5105  26.5105  27.1216  27.1216  27.2425  27.2425  27.7311  27.7311
    28.0418  28.0418  28.6002  28.6002  28.7132  28.7132  29.0506  29.0506
    29.1914  29.1914  29.3948  29.3948  29.6399  29.6399  29.7455  29.7455
    30.5911  30.5911  30.9572  30.9572  31.1063  31.1063  31.5050  31.5050
    31.9877  31.9877  33.0943  33.0943  33.2145  33.2145  33.8346  33.8346
    34.5991  34.5991  34.6950  34.6950  35.6460  35.6460  35.9083  35.9083
    36.3381  36.3381  37.3328  37.3328  37.4524  37.4524  37.5309  37.5309
    38.9928  38.9928  39.2148  39.2148  39.2827  39.2827  39.6597  39.6597
    40.5933  40.5933  41.9726  41.9726  42.4866  42.4866  45.5618  45.5619
    46.4878  46.4881  46.6413  46.6414  47.5466

          k =-0.4608 0.2352 0.0000 (  3686 PWs)   bands (ev):

   -32.2851 -32.2851 -32.2673 -32.2673 -32.1854 -32.1854 -32.1137 -32.1137
   -20.5928 -20.5928 -20.5810 -20.5810  -4.3092  -4.3092  -4.1465  -4.1465
    -4.1052  -4.1052  -3.8367  -3.8367  -3.6752  -3.6752  -3.5276  -3.5276
    -3.4523  -3.4523  -3.2838  -3.2838  -2.9821  -2.9821  -2.9696  -2.9696
    -2.8725  -2.8725  -2.7928  -2.7928   3.8776   3.8776   3.9539   3.9539
     4.1311   4.1311   4.1684   4.1684   4.2532   4.2532   4.2633   4.2633
    27.0632  27.0632  27.4764  27.4764  27.7693  27.7693  28.0195  28.0195
    28.2473  28.2473  28.2728  28.2728  29.0418  29.0418  29.2270  29.2270
    29.4645  29.4645  29.6601  29.6601  29.8975  29.8975  30.0756  30.0756
    30.2882  30.2882  30.3451  30.3451  31.3567  31.3567  31.8145  31.8145
    32.1582  32.1582  32.7778  32.7778  32.9317  32.9317  33.5777  33.5777
    34.3780  34.3780  34.7836  34.7836  35.4585  35.4585  35.5622  35.5622
    36.3099  36.3099  36.5320  36.5320  36.7717  36.7717  37.4061  37.4061
    37.8877  37.8877  37.9407  37.9407  38.3231  38.3231  39.5591  39.5591
    41.5594  41.5594  42.0482  42.0482  42.9701  42.9701  44.1327  44.1327
    46.1341  46.1342  46.8064  46.8064  47.9130

          k =-0.4608 0.2352 0.1219 (  3692 PWs)   bands (ev):

   -32.2908 -32.2908 -32.2677 -32.2677 -32.1845 -32.1845 -32.1134 -32.1134
   -20.5911 -20.5911 -20.5833 -20.5833  -4.3428  -4.3428  -4.1719  -4.1719
    -4.0259  -4.0259  -3.9185  -3.9185  -3.6842  -3.6842  -3.5734  -3.5734
    -3.3607  -3.3607  -3.1996  -3.1996  -3.0122  -3.0122  -2.9877  -2.9877
    -2.8821  -2.8821  -2.8006  -2.8006   3.8807   3.8807   3.9670   3.9670
     4.1230   4.1230   4.1552   4.1552   4.2392   4.2392   4.2613   4.2613
    27.1135  27.1135  27.3198  27.3198  27.8214  27.8214  28.0560  28.0560
    28.3081  28.3081  28.6095  28.6095  28.8811  28.8811  29.2612  29.2612
    29.3473  29.3473  29.6931  29.6931  29.8360  29.8360  29.9531  29.9531
    30.3783  30.3783  30.7169  30.7169  31.4585  31.4585  31.6953  31.6953
    32.1741  32.1741  32.4595  32.4595  32.9479  32.9479  33.4927  33.4927
    34.1028  34.1028  34.5664  34.5664  35.3975  35.3975  35.6652  35.6652
    36.1724  36.1724  36.2455  36.2455  36.6490  36.6490  37.2787  37.2787
    37.9455  37.9455  38.3319  38.3319  38.6767  38.6767  40.0385  40.0385
    41.1493  41.1494  42.4402  42.4402  42.6866  42.6866  44.7319  44.7319
    46.3200  46.3201  46.9578  46.9579  47.8177

          k =-0.4608 0.2352-0.2437 (  3704 PWs)   bands (ev):

   -32.2904 -32.2904 -32.2709 -32.2709 -32.1910 -32.1910 -32.1157 -32.1157
   -20.5912 -20.5912 -20.5849 -20.5849  -4.3842  -4.3842  -4.0950  -4.0950
    -4.0601  -4.0601  -3.9823  -3.9823  -3.7342  -3.7342  -3.5546  -3.5546
    -3.2881  -3.2881  -3.0997  -3.0997  -3.0657  -3.0657  -3.0422  -3.0422
    -2.8643  -2.8643  -2.8140  -2.8140   3.8806   3.8806   3.9796   3.9796
     4.1156   4.1156   4.1413   4.1413   4.2287   4.2287   4.2540   4.2540
    26.9595  26.9595  27.6473  27.6473  27.6763  27.6763  28.2208  28.2208
    28.2527  28.2527  28.6629  28.6629  28.9424  28.9424  29.2644  29.2644
    29.2784  29.2784  29.5924  29.5924  29.8001  29.8001  30.1721  30.1721
    30.4108  30.4108  31.1060  31.1060  31.2192  31.2192  31.6030  31.6030
    31.7170  31.7170  32.8604  32.8604  32.9642  32.9642  33.5906  33.5906
    33.9299  33.9299  34.0184  34.0184  35.4001  35.4001  35.4062  35.4062
    35.8925  35.8925  36.2051  36.2051  36.6323  36.6323  37.0931  37.0931
    38.1649  38.1649  38.5327  38.5327  39.7153  39.7153  39.8090  39.8090
    41.2676  41.2676  41.8337  41.8337  42.9411  42.9411  45.8502  45.8503
    46.0179  46.0180  47.2763  47.2763  47.7765

     the Fermi energy is    37.9100 ev

!    total energy              =   -2211.89665129 Ry
     Harris-Foulkes estimate   =   -2211.89667089 Ry
     estimated scf accuracy    <       0.00002139 Ry

     The total energy is the sum of the following terms:

     one-electron contribution =     166.32493176 Ry
     hartree contribution      =     173.28746358 Ry
     xc contribution           =    -234.17813998 Ry
     ewald contribution        =   -2316.78663002 Ry
     smearing contrib. (-TS)   =      -0.54427664 Ry

     convergence has been achieved in   8 iterations

     Forces acting on atoms (Ry/au):

     atom    1 type  1   force =     0.00000000   -0.03675705   -0.03219528
     atom    2 type  1   force =     0.00000000    0.03675705    0.03219528
     atom    3 type  1   force =     0.00000000   -0.03675705    0.03219528
     atom    4 type  1   force =     0.00000000    0.03675705   -0.03219528
     atom    5 type  1   force =     0.00000000    0.10003359   -0.13968510
     atom    6 type  1   force =     0.00000000   -0.10003359    0.13968510
     atom    7 type  1   force =     0.00000000    0.10003359    0.13968510
     atom    8 type  1   force =     0.00000000   -0.10003359   -0.13968510
     atom    9 type  2   force =     0.00000000   -0.09958762   -0.00803501
     atom   10 type  2   force =     0.00000000    0.09958762    0.00803501
     atom   11 type  2   force =     0.00000000   -0.09958762    0.00803501
     atom   12 type  2   force =     0.00000000    0.09958762   -0.00803501

     Total force =     0.409334     Total SCF correction =     0.000000


     entering subroutine stress ...

          total   stress  (Ry/bohr**3)                   (kbar)     P= 2048.18
   0.01457304   0.00000000   0.00000000       2143.77      0.00      0.00
   0.00000000   0.01309970   0.00000000          0.00   1927.03      0.00
   0.00000000   0.00000000   0.01409694          0.00      0.00   2073.73


     number of scf cycles    =   2
     number of bfgs steps    =   1

     enthalpy old            =   -2205.6118379802 Ry
     enthalpy new            =   -2211.8966512897 Ry

     CASE: enthalpy_new < enthalpy_old

     small trust_radius: resetting bfgs history

     new trust radius        =       2.4046386688 bohr
     new conv_thr            =       0.0001000000 Ry

     new unit-cell volume =   2667.61038 a.u.^3 (   395.29907 Ang^3 )

CELL_PARAMETERS (alat=  7.01510508)
   1.480480051   0.000000000   0.000000000
   0.000000000   1.881044461   0.000000000
   0.000000000   0.000000000   2.774714068

ATOMIC_POSITIONS (crystal)
Co       0.750000000   0.822255528   0.433152369
Co       0.250000000   0.177744472   0.566847631
Co       0.750000000   0.322255528   0.066847631
Co       0.250000000   0.677744472   0.933152369
Co       0.250000000   0.548435717   0.271251069
Co       0.750000000   0.451564283   0.728748931
Co       0.250000000   0.048435717   0.228748931
Co       0.750000000   0.951564283   0.771251069
Si       0.250000000   0.191502680   0.893010300
Si       0.750000000   0.808497320   0.106989700
Si       0.250000000   0.691502680   0.606989700
Si       0.750000000   0.308497320   0.393010300



     Writing output data file Prototype-La-oP12-Co2Si.save
     NEW-OLD atomic charge density approx. for the potential
     NEW k-points:
        k(    1) = (   0.0000000   0.0000000   0.0000000), wk =   0.0833333
        k(    2) = (   0.0000000   0.0000000   0.0900994), wk =   0.1666667
        k(    3) = (   0.0000000   0.0000000  -0.1801987), wk =   0.0833333
        k(    4) = (   0.0000000   0.1772065   0.0000000), wk =   0.1666667
        k(    5) = (   0.0000000   0.1772065   0.0900994), wk =   0.3333333
        k(    6) = (   0.0000000   0.1772065  -0.1801987), wk =   0.1666667
        k(    7) = (  -0.3377283   0.0000000   0.0000000), wk =   0.0833333
        k(    8) = (  -0.3377283   0.0000000   0.0900994), wk =   0.1666667
        k(    9) = (  -0.3377283   0.0000000  -0.1801987), wk =   0.0833333
        k(   10) = (  -0.3377283   0.1772065   0.0000000), wk =   0.1666667
        k(   11) = (  -0.3377283   0.1772065   0.0900994), wk =   0.3333333
        k(   12) = (  -0.3377283   0.1772065  -0.1801987), wk =   0.1666667

     total cpu time spent up to now is      222.0 secs

     Self-consistent Calculation

     iteration #  1     ecut=    40.00 Ry     beta=0.70
     CG style diagonalization
     c_bands:  4 eigenvalues not converged
     c_bands:  2 eigenvalues not converged
     c_bands:  3 eigenvalues not converged
     c_bands:  2 eigenvalues not converged
     c_bands:  1 eigenvalues not converged
     c_bands:  1 eigenvalues not converged
     c_bands:  3 eigenvalues not converged
     ethr =  1.00E-06,  avg # of iterations = 27.1

     total cpu time spent up to now is      280.2 secs

     total energy              =   -2107.52303018 Ry
     Harris-Foulkes estimate   =   -2389.66482335 Ry
     estimated scf accuracy    <     366.52972991 Ry

     iteration #  2     ecut=    40.00 Ry     beta=0.70
     CG style diagonalization
     ethr =  1.00E-02,  avg # of iterations =  5.7

     total cpu time spent up to now is      293.2 secs

     total energy              =   -2184.39657233 Ry
     Harris-Foulkes estimate   =   -2221.38347643 Ry
     estimated scf accuracy    <      56.91624517 Ry

     iteration #  3     ecut=    40.00 Ry     beta=0.70
     CG style diagonalization
     ethr =  1.00E-02,  avg # of iterations =  4.4

     total cpu time spent up to now is      302.7 secs

     total energy              =   -2202.58430211 Ry
     Harris-Foulkes estimate   =   -2206.22789967 Ry
     estimated scf accuracy    <      15.67603158 Ry

     iteration #  4     ecut=    40.00 Ry     beta=0.70
     CG style diagonalization
     ethr =  7.54E-03,  avg # of iterations =  3.1

     total cpu time spent up to now is      309.8 secs

     total energy              =   -2202.80627457 Ry
     Harris-Foulkes estimate   =   -2203.99550037 Ry
     estimated scf accuracy    <       4.12332051 Ry

     iteration #  5     ecut=    40.00 Ry     beta=0.70
     CG style diagonalization
     ethr =  1.98E-03,  avg # of iterations =  3.1

     total cpu time spent up to now is      317.0 secs

     total energy              =   -2202.74275109 Ry
     Harris-Foulkes estimate   =   -2203.16045883 Ry
     estimated scf accuracy    <       1.59306208 Ry

     iteration #  6     ecut=    40.00 Ry     beta=0.70
     CG style diagonalization
     ethr =  7.66E-04,  avg # of iterations =  3.2

     total cpu time spent up to now is      324.4 secs

     total energy              =   -2202.89228786 Ry
     Harris-Foulkes estimate   =   -2202.93141678 Ry
     estimated scf accuracy    <       0.08634354 Ry

     iteration #  7     ecut=    40.00 Ry     beta=0.70
     CG style diagonalization
     c_bands:  1 eigenvalues not converged
     c_bands:  1 eigenvalues not converged
     c_bands:  1 eigenvalues not converged
     ethr =  4.15E-05,  avg # of iterations =  4.1

     total cpu time spent up to now is      334.2 secs

     total energy              =   -2202.92060107 Ry
     Harris-Foulkes estimate   =   -2202.93307833 Ry
     estimated scf accuracy    <       0.06038651 Ry

     iteration #  8     ecut=    40.00 Ry     beta=0.70
     CG style diagonalization
     ethr =  2.90E-05,  avg # of iterations =  3.0

     total cpu time spent up to now is      341.3 secs

     total energy              =   -2202.92339840 Ry
     Harris-Foulkes estimate   =   -2202.92910237 Ry
     estimated scf accuracy    <       0.02323686 Ry

     iteration #  9     ecut=    40.00 Ry     beta=0.70
     CG style diagonalization
     ethr =  1.12E-05,  avg # of iterations =  3.0

     total cpu time spent up to now is      348.0 secs

     total energy              =   -2202.92458835 Ry
     Harris-Foulkes estimate   =   -2202.92534419 Ry
     estimated scf accuracy    <       0.00150203 Ry

     iteration # 10     ecut=    40.00 Ry     beta=0.70
     CG style diagonalization
     c_bands:  1 eigenvalues not converged
     ethr =  7.22E-07,  avg # of iterations =  4.0

     total cpu time spent up to now is      357.3 secs

     total energy              =   -2202.92509260 Ry
     Harris-Foulkes estimate   =   -2202.92518934 Ry
     estimated scf accuracy    <       0.00043800 Ry

     iteration # 11     ecut=    40.00 Ry     beta=0.70
     CG style diagonalization
     ethr =  2.11E-07,  avg # of iterations =  3.3

     total cpu time spent up to now is      364.9 secs

     total energy              =   -2202.92509618 Ry
     Harris-Foulkes estimate   =   -2202.92513383 Ry
     estimated scf accuracy    <       0.00012465 Ry

     iteration # 12     ecut=    40.00 Ry     beta=0.70
     CG style diagonalization
     ethr =  5.99E-08,  avg # of iterations =  3.2

     total cpu time spent up to now is      371.6 secs

     End of self-consistent calculation

          k = 0.0000 0.0000 0.0000 (  3675 PWs)   bands (ev):

   -52.1956 -52.1341 -52.1336 -52.0621 -52.0085 -51.9596 -51.8948 -51.8425
   -43.0235 -43.0175 -42.9770 -42.9763 -25.8657 -25.8643 -25.8610 -25.8569
   -25.8495 -25.8409 -25.8381 -25.8326 -25.8316 -25.8258 -25.8217 -25.8184
   -25.8082 -25.8064 -25.7780 -25.7768 -25.7766 -25.7764 -25.7545 -25.7530
   -25.7504 -25.7449 -25.7116 -25.7098 -19.6641 -19.6610 -19.6565 -19.6548
   -19.6541 -19.6526 -19.6520 -19.6433 -19.6423 -19.6354 -19.6353 -19.6269
     7.7742   8.1473   8.3501   8.3727   8.3790   8.4089   8.4098   8.4154
     8.4311   8.4354   8.5041   8.7003   8.7512   8.7661   8.8177   8.9048
     8.9430   9.0615   9.0815   9.0959   9.1522   9.2208   9.2887   9.3361
     9.3849   9.4652   9.4696   9.5035   9.5331   9.6389   9.6574   9.6881
     9.7262   9.7290   9.7642   9.8491   9.9936  10.1380  10.1582  10.3488
    10.3557  10.3663  10.3724  10.4672  10.7040  10.7810  10.9231  10.9810
    10.9894  11.0181  11.0590  11.2982  11.3091  11.3581  11.3667  11.3693
    11.4824  11.7094  11.7328  11.7546  11.7708  11.8222  11.8580  13.0331
    13.5181  13.7197  14.0289  14.1642  14.8994  15.1255  15.8223  16.6609
    16.8907  17.0182  17.0759  17.2817  17.3182

          k = 0.0000 0.0000 0.0901 (  3675 PWs)   bands (ev):

   -52.1953 -52.1718 -52.1400 -52.0590 -51.9642 -51.9615 -51.9308 -51.8044
   -43.0406 -43.0063 -43.0005 -42.9426 -25.8646 -25.8624 -25.8615 -25.8591
   -25.8477 -25.8429 -25.8370 -25.8329 -25.8329 -25.8294 -25.8230 -25.8192
   -25.8079 -25.8069 -25.7789 -25.7768 -25.7760 -25.7739 -25.7559 -25.7537
   -25.7479 -25.7433 -25.7145 -25.7112 -19.6633 -19.6618 -19.6594 -19.6527
   -19.6513 -19.6499 -19.6497 -19.6470 -19.6447 -19.6388 -19.6359 -19.6269
     7.8883   8.1964   8.2707   8.2855   8.3165   8.3644   8.3908   8.4476
     8.5070   8.5299   8.6217   8.6268   8.7396   8.8302   8.8740   8.8865
     8.9266   8.9521   9.0563   9.1325   9.1793   9.2077   9.2450   9.2686
     9.2748   9.3770   9.4055   9.4679   9.5741   9.6304   9.6316   9.6574
     9.7392   9.8178   9.9298  10.0117  10.0920  10.1210  10.1852  10.2123
    10.2126  10.2625  10.4084  10.4558  10.5861  10.6803  10.9540  10.9905
    11.0094  11.0162  11.1669  11.2946  11.3114  11.3295  11.3988  11.3997
    11.4804  11.6091  11.7107  11.7263  11.7466  11.7573  12.4366  13.1236
    13.6698  13.9327  13.9422  13.9998  14.8280  15.2379  15.3055  15.8946
    16.7777  16.8666  17.6142  18.0055  18.1551

          k = 0.0000 0.0000-0.1802 (  3690 PWs)   bands (ev):

   -52.2457 -52.2457 -52.0856 -52.0856 -52.0160 -52.0160 -51.8833 -51.8833
   -43.0450 -43.0450 -42.9935 -42.9935 -25.8633 -25.8633 -25.8621 -25.8621
   -25.8456 -25.8456 -25.8358 -25.8358 -25.8334 -25.8334 -25.8257 -25.8257
   -25.8095 -25.8095 -25.7785 -25.7785 -25.7744 -25.7744 -25.7580 -25.7580
   -25.7476 -25.7476 -25.7159 -25.7159 -19.6682 -19.6682 -19.6577 -19.6577
   -19.6491 -19.6491 -19.6491 -19.6491 -19.6473 -19.6473 -19.6388 -19.6388
     8.1432   8.1432   8.2389   8.2389   8.3145   8.3145   8.3502   8.3502
     8.5667   8.5667   8.6642   8.6642   8.7316   8.7316   8.9251   8.9251
     8.9329   8.9329   9.0773   9.0773   9.1441   9.1441   9.1709   9.1709
     9.3073   9.3073   9.4621   9.4621   9.6522   9.6522   9.6547   9.6547
     9.7724   9.7724   9.9985   9.9985  10.0802  10.0802  10.1779  10.1779
    10.3103  10.3103  10.3458  10.3458  10.5007  10.5007  10.9995  10.9995
    11.1130  11.1130  11.1796  11.1796  11.2957  11.2957  11.4259  11.4259
    11.4740  11.4740  11.7239  11.7239  11.7547  11.7547  13.3591  13.3591
    13.5152  13.5152  13.9569  13.9569  14.8342  14.8342  15.4951  15.4951
    16.7874  16.7874  17.9957  17.9958  18.2047

          k = 0.0000 0.1772 0.0000 (  3664 PWs)   bands (ev):

   -52.1568 -52.1315 -52.1062 -52.0989 -51.9477 -51.8978 -51.8546 -51.8499
   -43.0552 -43.0196 -42.9229 -42.9142 -25.8628 -25.8627 -25.8590 -25.8588
   -25.8464 -25.8423 -25.8384 -25.8343 -25.8287 -25.8273 -25.8214 -25.8187
   -25.7899 -25.7846 -25.7788 -25.7784 -25.7764 -25.7740 -25.7636 -25.7591
   -25.7453 -25.7391 -25.7266 -25.7239 -19.6614 -19.6593 -19.6591 -19.6533
   -19.6524 -19.6518 -19.6461 -19.6417 -19.6414 -19.6412 -19.6266 -19.6258
     8.1533   8.3231   8.4639   8.4822   8.5002   8.5349   8.5428   8.5767
     8.6223   8.6283   8.6504   8.7176   8.7866   8.8096   8.8386   8.8925
     8.9489   8.9642   9.0072   9.0524   9.1029   9.1623   9.2060   9.3374
     9.3524   9.4286   9.4752   9.4867   9.5352   9.5954   9.6044   9.6834
     9.7480   9.7663   9.8498   9.9125   9.9550  10.0684  10.0867  10.2778
    10.3302  10.3676  10.3744  10.4334  10.6630  10.7431  10.7668  10.7806
    10.8756  11.0682  11.0782  11.2457  11.2523  11.2687  11.2982  11.3957
    11.4404  11.4472  11.4540  11.5547  11.5560  11.7507  11.7737  11.9009
    12.3183  12.5601  14.7317  16.0501  16.0678  16.6268  16.8301  16.8427
    16.8647  17.1223  17.2041  17.3865  17.4134

          k = 0.0000 0.1772 0.0901 (  3669 PWs)   bands (ev):

   -52.2150 -52.1513 -52.0869 -52.0514 -51.9731 -51.9174 -51.8717 -51.8641
   -43.0417 -43.0150 -42.9672 -42.9287 -25.8643 -25.8639 -25.8601 -25.8588
   -25.8463 -25.8439 -25.8354 -25.8330 -25.8309 -25.8287 -25.8218 -25.8199
   -25.7902 -25.7864 -25.7789 -25.7775 -25.7751 -25.7750 -25.7621 -25.7600
   -25.7446 -25.7406 -25.7283 -25.7242 -19.6665 -19.6584 -19.6571 -19.6564
   -19.6531 -19.6528 -19.6467 -19.6423 -19.6418 -19.6414 -19.6304 -19.6258
     8.2309   8.3525   8.3800   8.4364   8.4620   8.5035   8.5364   8.6247
     8.6678   8.7047   8.7242   8.7733   8.7770   8.8258   8.8355   8.8642
     8.9511   8.9670   8.9984   9.0805   9.1250   9.1411   9.2349   9.2459
     9.3707   9.3756   9.4098   9.4691   9.5483   9.5958   9.6212   9.6973
     9.7018   9.7334   9.8508   9.9026   9.9697  10.0363  10.0810  10.1967
    10.2952  10.2973  10.3608  10.3821  10.5500  10.7053  10.8537  10.8799
    10.9032  11.0308  11.0666  11.1513  11.1595  11.1933  11.3353  11.3973
    11.4329  11.4727  11.5060  11.5467  11.5820  11.6995  11.7653  11.8514
    12.6368  13.3400  14.9704  15.1370  15.8070  16.1479  16.4458  16.6223
    16.8683  16.9315  16.9599  17.2837  17.3844

          k = 0.0000 0.1772-0.1802 (  3666 PWs)   bands (ev):

   -52.1460 -52.1460 -52.0350 -52.0350 -51.9571 -51.9571 -51.9023 -51.9023
   -43.0015 -43.0015 -42.9658 -42.9658 -25.8627 -25.8627 -25.8586 -25.8586
   -25.8447 -25.8447 -25.8336 -25.8336 -25.8307 -25.8307 -25.8191 -25.8191
   -25.7887 -25.7887 -25.7779 -25.7779 -25.7758 -25.7758 -25.7615 -25.7615
   -25.7413 -25.7413 -25.7265 -25.7265 -19.6592 -19.6592 -19.6562 -19.6562
   -19.6522 -19.6522 -19.6444 -19.6444 -19.6410 -19.6410 -19.6295 -19.6295
     8.2999   8.2999   8.4458   8.4458   8.4712   8.4712   8.5894   8.5894
     8.6689   8.6689   8.7785   8.7785   8.8174   8.8174   8.8673   8.8673
     8.9155   8.9155   9.1283   9.1283   9.1756   9.1756   9.1948   9.1948
     9.2524   9.2524   9.4557   9.4557   9.6006   9.6006   9.6212   9.6212
     9.7478   9.7478   9.8585   9.8585   9.9901   9.9901  10.1225  10.1225
    10.1840  10.1840  10.3239  10.3239  10.6303  10.6303  10.9521  10.9521
    11.0127  11.0127  11.0286  11.0286  11.1147  11.1147  11.3911  11.3911
    11.4431  11.4431  11.5789  11.5789  11.6531  11.6531  11.7092  11.7092
    13.7289  13.7289  14.6024  14.6024  15.5923  15.5924  16.3614  16.3615
    16.8590  16.8590  17.2856  17.3644  17.3645

          k =-0.3377 0.0000 0.0000 (  3722 PWs)   bands (ev):

   -52.2037 -52.2037 -52.1617 -52.1617 -52.1055 -52.1055 -52.0639 -52.0639
   -43.0917 -43.0917 -43.0791 -43.0791 -25.8673 -25.8673 -25.8661 -25.8661
   -25.8477 -25.8477 -25.8386 -25.8386 -25.8322 -25.8322 -25.8262 -25.8262
   -25.8101 -25.8101 -25.7825 -25.7825 -25.7778 -25.7778 -25.7574 -25.7574
   -25.7444 -25.7444 -25.7130 -25.7130 -19.6690 -19.6690 -19.6662 -19.6662
   -19.6633 -19.6633 -19.6610 -19.6610 -19.6432 -19.6432 -19.6373 -19.6373
     8.2047   8.2047   8.3320   8.3320   8.5149   8.5149   8.5921   8.5921
     8.6412   8.6412   8.7509   8.7509   8.8315   8.8315   8.9274   8.9274
     8.9478   8.9478   8.9957   8.9957   9.0175   9.0175   9.1347   9.1347
     9.3679   9.3679   9.4914   9.4914   9.4998   9.4998   9.7717   9.7717
     9.7758   9.7758   9.9302   9.9302  10.0457  10.0457  10.2912  10.2912
    10.4642  10.4642  10.6898  10.6898  10.7278  10.7278  10.9498  10.9498
    11.0322  11.0322  11.1398  11.1398  11.1437  11.1437  11.4685  11.4685
    11.4713  11.4713  11.5969  11.5969  11.8450  11.8450  12.2292  12.2292
    12.3774  12.3774  13.2876  13.2876  15.0442  15.0442  16.1500  16.1504
    16.3000  16.3000  16.4553  16.6413  16.6414

          k =-0.3377 0.0000 0.0901 (  3710 PWs)   bands (ev):

   -52.1791 -52.1791 -52.1455 -52.1455 -52.0641 -52.0641 -52.0368 -52.0368
   -43.0651 -43.0651 -43.0619 -43.0619 -25.8687 -25.8687 -25.8618 -25.8618
   -25.8463 -25.8463 -25.8388 -25.8388 -25.8316 -25.8316 -25.8267 -25.8267
   -25.8083 -25.8083 -25.7812 -25.7812 -25.7774 -25.7774 -25.7544 -25.7544
   -25.7462 -25.7462 -25.7143 -25.7143 -19.6655 -19.6655 -19.6633 -19.6633
   -19.6607 -19.6607 -19.6561 -19.6561 -19.6432 -19.6432 -19.6394 -19.6394
     8.2185   8.2185   8.3357   8.3357   8.5257   8.5257   8.5977   8.5977
     8.6815   8.6815   8.7759   8.7759   8.8155   8.8155   8.8695   8.8695
     8.9338   8.9338   9.0468   9.0468   9.1517   9.1517   9.2006   9.2006
     9.3630   9.3630   9.3938   9.3938   9.5643   9.5643   9.6764   9.6764
     9.7607   9.7607   9.8036   9.8036  10.0360  10.0360  10.1894  10.1894
    10.4372  10.4372  10.5273  10.5273  10.8030  10.8030  10.9942  10.9942
    11.0738  11.0738  11.1519  11.1519  11.2918  11.2918  11.3882  11.3882
    11.5323  11.5323  11.6927  11.6927  11.7998  11.7998  11.9432  11.9432
    12.8142  12.8142  13.5284  13.5284  14.6947  14.6948  16.0233  16.0234
    16.1091  16.1091  16.5430  16.5436  16.9713

          k =-0.3377 0.0000-0.1802 (  3680 PWs)   bands (ev):

   -52.0985 -52.0985 -52.0959 -52.0959 -52.0106 -52.0106 -51.9602 -51.9602
   -43.0293 -43.0293 -42.9924 -42.9924 -25.8648 -25.8648 -25.8565 -25.8565
   -25.8435 -25.8435 -25.8378 -25.8378 -25.8299 -25.8299 -25.8279 -25.8279
   -25.8082 -25.8082 -25.7790 -25.7790 -25.7763 -25.7763 -25.7527 -25.7527
   -25.7418 -25.7418 -25.7127 -25.7127 -19.6577 -19.6577 -19.6564 -19.6564
   -19.6544 -19.6544 -19.6537 -19.6537 -19.6397 -19.6397 -19.6340 -19.6340
     8.2223   8.2223   8.4172   8.4172   8.4858   8.4858   8.5623   8.5623
     8.7092   8.7092   8.7340   8.7340   8.9137   8.9137   8.9710   8.9710
     8.9722   8.9722   9.1085   9.1085   9.1770   9.1770   9.1913   9.1913
     9.3246   9.3246   9.3869   9.3869   9.4425   9.4425   9.6809   9.6809
     9.7063   9.7063   9.7753   9.7753  10.0092  10.0092  10.1939  10.1939
    10.3865  10.3865  10.4170  10.4170  10.8894  10.8894  11.0335  11.0335
    11.0577  11.0577  11.2236  11.2236  11.2663  11.2663  11.3753  11.3753
    11.6747  11.6747  11.7131  11.7131  11.7791  11.7791  11.8087  11.8087
    13.1590  13.1590  14.0656  14.0657  14.0729  14.0729  15.9459  15.9459
    15.9876  15.9876  16.0650  16.0651  17.4926

          k =-0.3377 0.1772 0.0000 (  3686 PWs)   bands (ev):

   -52.1118 -52.1118 -52.1015 -52.1015 -52.0322 -52.0322 -52.0023 -52.0023
   -43.0434 -43.0434 -43.0146 -43.0146 -25.8632 -25.8632 -25.8622 -25.8622
   -25.8436 -25.8436 -25.8383 -25.8383 -25.8261 -25.8261 -25.8204 -25.8204
   -25.7862 -25.7862 -25.7795 -25.7795 -25.7776 -25.7776 -25.7605 -25.7605
   -25.7380 -25.7380 -25.7258 -25.7258 -19.6655 -19.6655 -19.6604 -19.6604
   -19.6542 -19.6542 -19.6541 -19.6541 -19.6344 -19.6344 -19.6299 -19.6299
     8.3710   8.3710   8.5369   8.5369   8.6062   8.6062   8.6488   8.6488
     8.8122   8.8122   8.8332   8.8332   9.0214   9.0214   9.0301   9.0301
     9.0529   9.0529   9.1441   9.1441   9.1863   9.1863   9.2071   9.2071
     9.2963   9.2963   9.3096   9.3096   9.4356   9.4356   9.6094   9.6094
     9.6719   9.6719   9.9328   9.9328   9.9459   9.9459  10.0676  10.0676
    10.2448  10.2448  10.5766  10.5766  10.7619  10.7619  10.7901  10.7901
    11.0039  11.0039  11.0527  11.0527  11.2122  11.2122  11.3063  11.3063
    11.4177  11.4177  11.4617  11.4617  11.4966  11.4966  12.1716  12.1716
    12.9169  12.9169  13.0745  13.0745  14.0940  14.0941  14.3005  14.3005
    17.6290  17.6292  18.0549  18.0549  18.3554

          k =-0.3377 0.1772 0.0901 (  3692 PWs)   bands (ev):

   -52.1265 -52.1265 -52.1058 -52.1058 -52.0388 -52.0388 -52.0176 -52.0176
   -43.0679 -43.0679 -43.0058 -43.0058 -25.8642 -25.8642 -25.8616 -25.8616
   -25.8430 -25.8430 -25.8392 -25.8392 -25.8268 -25.8268 -25.8235 -25.8235
   -25.7892 -25.7892 -25.7790 -25.7790 -25.7766 -25.7766 -25.7619 -25.7619
   -25.7393 -25.7393 -25.7266 -25.7266 -19.6646 -19.6646 -19.6614 -19.6614
   -19.6582 -19.6582 -19.6540 -19.6540 -19.6399 -19.6399 -19.6289 -19.6289
     8.3913   8.3913   8.4902   8.4902   8.6720   8.6720   8.7122   8.7122
     8.8188   8.8188   8.8395   8.8395   8.8827   8.8827   9.0358   9.0358
     9.0605   9.0605   9.1453   9.1453   9.2033   9.2033   9.2377   9.2377
     9.3304   9.3304   9.3523   9.3523   9.4898   9.4898   9.5594   9.5594
     9.6875   9.6875   9.8390   9.8390   9.9290   9.9290  10.0229  10.0229
    10.2182  10.2182  10.3751  10.3751  10.7332  10.7332  10.8802  10.8802
    10.9876  10.9876  11.0363  11.0363  11.1792  11.1792  11.3176  11.3176
    11.4199  11.4199  11.5228  11.5228  11.6373  11.6373  12.2023  12.2023
    12.6607  12.6607  13.4384  13.4384  13.7197  13.7197  15.0786  15.0786
    16.9064  16.9066  17.5403  17.5404  17.9232

          k =-0.3377 0.1772-0.1802 (  3704 PWs)   bands (ev):

   -52.1521 -52.1521 -52.1382 -52.1382 -52.0578 -52.0578 -52.0375 -52.0375
   -43.0973 -43.0973 -43.0157 -43.0157 -25.8662 -25.8662 -25.8607 -25.8607
   -25.8437 -25.8437 -25.8404 -25.8404 -25.8284 -25.8284 -25.8267 -25.8267
   -25.7916 -25.7916 -25.7789 -25.7789 -25.7770 -25.7770 -25.7631 -25.7631
   -25.7407 -25.7407 -25.7288 -25.7288 -19.6672 -19.6672 -19.6655 -19.6655
   -19.6580 -19.6580 -19.6579 -19.6579 -19.6381 -19.6381 -19.6360 -19.6360
     8.3758   8.3758   8.5799   8.5799   8.6189   8.6189   8.7369   8.7369
     8.7599   8.7599   8.9098   8.9098   8.9262   8.9262   9.0095   9.0095
     9.0411   9.0411   9.1434   9.1434   9.1677   9.1677   9.2820   9.2820
     9.2886   9.2886   9.4001   9.4001   9.5005   9.5005   9.6192   9.6192
     9.6558   9.6558   9.7591   9.7591   9.9065   9.9065   9.9951   9.9951
    10.1520  10.1520  10.2644  10.2644  10.7564  10.7564  10.8085  10.8085
    10.9945  10.9945  11.0324  11.0324  11.1881  11.1881  11.2782  11.2782
    11.4749  11.4749  11.5443  11.5443  11.8767  11.8767  12.0295  12.0295
    12.9083  12.9083  12.9675  12.9675  14.1776  14.1776  15.6967  15.6968
    16.5145  16.5145  16.5552  16.5554  18.0094

     the Fermi energy is    11.6505 ev

!    total energy              =   -2202.92510797 Ry
     Harris-Foulkes estimate   =   -2202.92511050 Ry
     estimated scf accuracy    <       0.00000305 Ry

     The total energy is the sum of the following terms:

     one-electron contribution =    -680.54215441 Ry
     hartree contribution      =     417.92164917 Ry
     xc contribution           =    -219.47611507 Ry
     ewald contribution        =   -1719.54257038 Ry
     smearing contrib. (-TS)   =      -1.28591729 Ry

     convergence has been achieved in  12 iterations

     Forces acting on atoms (Ry/au):

     atom    1 type  1   force =     0.00000000   -0.00506149   -0.00427841
     atom    2 type  1   force =     0.00000000    0.00506149    0.00427841
     atom    3 type  1   force =     0.00000000   -0.00506149    0.00427841
     atom    4 type  1   force =     0.00000000    0.00506149   -0.00427841
     atom    5 type  1   force =     0.00000000    0.00006172    0.00877593
     atom    6 type  1   force =     0.00000000   -0.00006172   -0.00877593
     atom    7 type  1   force =     0.00000000    0.00006172   -0.00877593
     atom    8 type  1   force =     0.00000000   -0.00006172    0.00877593
     atom    9 type  2   force =     0.00000000    0.00023273   -0.00453096
     atom   10 type  2   force =     0.00000000   -0.00023273    0.00453096
     atom   11 type  2   force =     0.00000000    0.00023273    0.00453096
     atom   12 type  2   force =     0.00000000   -0.00023273   -0.00453096

     Total force =     0.023793     Total SCF correction =     0.000000


     entering subroutine stress ...

          total   stress  (Ry/bohr**3)                   (kbar)     P=-1352.08
  -0.00949653   0.00000000   0.00000000      -1396.99      0.00      0.00
   0.00000000  -0.00885695   0.00000000          0.00  -1302.90      0.00
   0.00000000   0.00000000  -0.00922038          0.00      0.00  -1356.36


     number of scf cycles    =   3
     number of bfgs steps    =   2

     enthalpy old            =   -2211.8966512897 Ry
     enthalpy new            =   -2202.9251079739 Ry

     CASE: enthalpy_new > enthalpy_old

     new trust radius        =       0.8843538749 bohr

     trust_radius < trust_radius_min

     resetting bfgs history

     Message from routine bfgs:
     history already reset at previous step: stopping
     new conv_thr            =       0.0001000000 Ry

     new unit-cell volume =   1303.22166 a.u.^3 (   193.11752 Ang^3 )

CELL_PARAMETERS (alat=  7.01510508)
   1.156797374   0.000000000   0.000000000
   0.000000000   1.496625436   0.000000000
   0.000000000   0.000000000   2.180445972

ATOMIC_POSITIONS (crystal)
Co       0.750000000   0.825452789   0.435097584
Co       0.250000000   0.174547211   0.564902416
Co       0.750000000   0.325452789   0.064902416
Co       0.250000000   0.674547211   0.935097584
Co       0.250000000   0.539734434   0.279690736
Co       0.750000000   0.460265566   0.720309264
Co       0.250000000   0.039734434   0.220309264
Co       0.750000000   0.960265566   0.779690736
Si       0.250000000   0.200165172   0.893495770
Si       0.750000000   0.799834828   0.106504230
Si       0.250000000   0.700165172   0.606504230
Si       0.750000000   0.299834828   0.393495770



     Writing output data file Prototype-La-oP12-Co2Si.save
     NEW-OLD atomic charge density approx. for the potential
     NEW k-points:
        k(    1) = (   0.0000000   0.0000000   0.0000000), wk =   0.0833333
        k(    2) = (   0.0000000   0.0000000   0.1146554), wk =   0.1666667
        k(    3) = (   0.0000000   0.0000000  -0.2293109), wk =   0.0833333
        k(    4) = (   0.0000000   0.2227233   0.0000000), wk =   0.1666667
        k(    5) = (   0.0000000   0.2227233   0.1146554), wk =   0.3333333
        k(    6) = (   0.0000000   0.2227233  -0.2293109), wk =   0.1666667
        k(    7) = (  -0.4322278   0.0000000   0.0000000), wk =   0.0833333
        k(    8) = (  -0.4322278   0.0000000   0.1146554), wk =   0.1666667
        k(    9) = (  -0.4322278   0.0000000  -0.2293109), wk =   0.0833333
        k(   10) = (  -0.4322278   0.2227233   0.0000000), wk =   0.1666667
        k(   11) = (  -0.4322278   0.2227233   0.1146554), wk =   0.3333333
        k(   12) = (  -0.4322278   0.2227233  -0.2293109), wk =   0.1666667

     total cpu time spent up to now is      375.8 secs

     Self-consistent Calculation

     iteration #  1     ecut=    40.00 Ry     beta=0.70
     CG style diagonalization
     c_bands:  1 eigenvalues not converged
     c_bands:  1 eigenvalues not converged
     c_bands:  5 eigenvalues not converged
     c_bands:  1 eigenvalues not converged
     c_bands:  5 eigenvalues not converged
     c_bands:  2 eigenvalues not converged
     c_bands:  5 eigenvalues not converged
     c_bands:  3 eigenvalues not converged
     c_bands:  3 eigenvalues not converged
     ethr =  1.00E-06,  avg # of iterations = 29.9

     total cpu time spent up to now is      441.0 secs

     total energy              =   -2131.26275299 Ry
     Harris-Foulkes estimate   =   -2353.63478881 Ry
     estimated scf accuracy    <     280.53254277 Ry

     iteration #  2     ecut=    40.00 Ry     beta=0.70
     CG style diagonalization
     ethr =  1.00E-02,  avg # of iterations =  6.4

     total cpu time spent up to now is      455.6 secs

     total energy              =   -2191.57198022 Ry
     Harris-Foulkes estimate   =   -2234.55364304 Ry
     estimated scf accuracy    <      64.82342311 Ry

     iteration #  3     ecut=    40.00 Ry     beta=0.70
     CG style diagonalization
     ethr =  1.00E-02,  avg # of iterations =  4.3

     total cpu time spent up to now is      465.7 secs

     total energy              =   -2206.13364634 Ry
     Harris-Foulkes estimate   =   -2221.93493985 Ry
     estimated scf accuracy    <      36.05513272 Ry

     iteration #  4     ecut=    40.00 Ry     beta=0.70
     CG style diagonalization
     ethr =  1.00E-02,  avg # of iterations =  3.5

     total cpu time spent up to now is      473.9 secs

     total energy              =   -2212.83387911 Ry
     Harris-Foulkes estimate   =   -2213.70636819 Ry
     estimated scf accuracy    <       1.61153044 Ry

     iteration #  5     ecut=    40.00 Ry     beta=0.70
     CG style diagonalization
     ethr =  7.75E-04,  avg # of iterations =  3.9

     total cpu time spent up to now is      483.1 secs

     total energy              =   -2213.20217463 Ry
     Harris-Foulkes estimate   =   -2213.45437499 Ry
     estimated scf accuracy    <       0.51202711 Ry

     iteration #  6     ecut=    40.00 Ry     beta=0.70
     CG style diagonalization
     ethr =  2.46E-04,  avg # of iterations =  3.6

     total cpu time spent up to now is      491.5 secs

     total energy              =   -2213.30275584 Ry
     Harris-Foulkes estimate   =   -2213.35308588 Ry
     estimated scf accuracy    <       0.11578413 Ry

     iteration #  7     ecut=    40.00 Ry     beta=0.70
     CG style diagonalization
     c_bands:  1 eigenvalues not converged
     c_bands:  1 eigenvalues not converged
     c_bands:  1 eigenvalues not converged
     c_bands:  1 eigenvalues not converged
     ethr =  5.57E-05,  avg # of iterations =  3.7

     total cpu time spent up to now is      499.8 secs

     total energy              =   -2213.32354137 Ry
     Harris-Foulkes estimate   =   -2213.32611370 Ry
     estimated scf accuracy    <       0.00513322 Ry

     iteration #  8     ecut=    40.00 Ry     beta=0.70
     CG style diagonalization
     c_bands:  2 eigenvalues not converged
     c_bands:  1 eigenvalues not converged
     c_bands:  1 eigenvalues not converged
     c_bands:  1 eigenvalues not converged
     ethr =  2.47E-06,  avg # of iterations =  4.0

     total cpu time spent up to now is      509.3 secs

     total energy              =   -2213.32446811 Ry
     Harris-Foulkes estimate   =   -2213.32476700 Ry
     estimated scf accuracy    <       0.00046821 Ry

     iteration #  9     ecut=    40.00 Ry     beta=0.70
     CG style diagonalization
     c_bands:  1 eigenvalues not converged
     c_bands:  1 eigenvalues not converged
     ethr =  2.25E-07,  avg # of iterations =  4.1

     total cpu time spent up to now is      518.8 secs

     total energy              =   -2213.32464255 Ry
     Harris-Foulkes estimate   =   -2213.32473103 Ry
     estimated scf accuracy    <       0.00018764 Ry

     iteration # 10     ecut=    40.00 Ry     beta=0.70
     CG style diagonalization
     c_bands:  1 eigenvalues not converged
     ethr =  9.02E-08,  avg # of iterations =  3.5

     total cpu time spent up to now is      526.3 secs

     End of self-consistent calculation

          k = 0.0000 0.0000 0.0000 (  3675 PWs)   bands (ev):

   -38.4001 -38.3572 -38.3524 -38.3479 -38.3089 -38.2508 -38.1767 -38.1743
   -27.1691 -27.1633 -27.1632 -27.1618  -9.9549  -9.9285  -9.7910  -9.7792
    -9.7262  -9.6456  -9.6047  -9.6037  -9.5734  -9.5485  -9.4013  -9.3922
    -9.3518  -9.3441  -9.3184  -9.3082  -9.2418  -9.1933  -9.1648  -9.1471
    -9.0908  -9.0387  -8.8733  -8.8293  -2.4895  -2.4742  -2.4550  -2.4308
[...]
     c_bands:  1 eigenvalues not converged
     c_bands:  1 eigenvalues not converged
     c_bands:  1 eigenvalues not converged
     c_bands:  1 eigenvalues not converged
     c_bands:  1 eigenvalues not converged
     ethr =  3.03E-06,  avg # of iterations =  4.6

     total cpu time spent up to now is      888.2 secs

     total energy              =   -2215.91790457 Ry
     Harris-Foulkes estimate   =   -2215.91813002 Ry
     estimated scf accuracy    <       0.00097282 Ry

     iteration # 10     ecut=    40.00 Ry     beta=0.70
     CG style diagonalization
     c_bands:  2 eigenvalues not converged
     c_bands:  1 eigenvalues not converged
     ethr =  4.68E-07,  avg # of iterations =  3.3

     total cpu time spent up to now is      900.7 secs

     total energy              =   -2215.91786004 Ry
     Harris-Foulkes estimate   =   -2215.91802668 Ry
     estimated scf accuracy    <       0.00039864 Ry

     iteration # 11     ecut=    40.00 Ry     beta=0.70
     CG style diagonalization
     ethr =  1.92E-07,  avg # of iterations =  3.5

     total cpu time spent up to now is      914.6 secs

     End of self-consistent calculation

          k = 0.0000 0.0000 0.0000 (  5619 PWs)   bands (ev):

   -38.6824 -38.6338 -38.6127 -38.6046 -38.5475 -38.5123 -38.4634 -38.4614
   -27.2152 -27.2150 -27.2085 -27.2033 -10.2128 -10.1653 -10.0731 -10.0387
    -9.9697  -9.9128  -9.8804  -9.8767  -9.8534  -9.8168  -9.6922  -9.6806
    -9.6406  -9.6299  -9.6219  -9.6104  -9.5160  -9.5084  -9.4783  -9.4568
    -9.3716  -9.3572  -9.1451  -9.1241  -2.6192  -2.6153  -2.5875  -2.5664
    -2.5635  -2.5144  -2.4991  -2.4942  -2.4228  -2.3821  -2.3525  -2.3104
    21.1285  21.4114  21.5015  21.5211  21.8209  21.8532  21.9097  21.9417
    22.1026  22.1954  22.5767  22.8828  23.1522  23.3383  23.3758  23.4698
    23.4749  23.6718  24.0055  24.4155  24.6539  24.7541  24.8201  24.8471
    24.8900  25.1081  25.2105  25.4535  25.5799  25.6645  25.9057  25.9178
    26.1589  26.2055  26.2159  26.2584  26.6796  26.9944  27.0310  27.8033
    27.8586  28.1242  28.2119  28.4033  28.5385  28.7900  29.1901  29.2520
    29.5195  29.5963  30.1258  30.1707  30.4565  30.4584  30.5686  30.5745
    31.4242  31.4923  31.5699  31.5798  31.6251  32.1219  32.3272  32.3605
    32.9303  34.6121  35.0732  35.3950  36.0758  36.8922  36.9504  38.7789
    38.9132  39.2655  39.4142  39.5966  39.8463

          k = 0.0000 0.0000 0.1147 (  5585 PWs)   bands (ev):

   -38.6765 -38.6431 -38.6071 -38.6035 -38.5390 -38.5139 -38.4608 -38.4606
   -27.2143 -27.2126 -27.2093 -27.2047 -10.1981 -10.1375 -10.0984 -10.0337
    -9.9916  -9.9398  -9.9354  -9.8273  -9.8159  -9.7987  -9.7226  -9.6882
    -9.6318  -9.6167  -9.6111  -9.6064  -9.5038  -9.4926  -9.4820  -9.4059
    -9.4031  -9.3325  -9.1427  -9.1281  -2.6118  -2.6031  -2.5762  -2.5732
    -2.5692  -2.5120  -2.5100  -2.4952  -2.4185  -2.3908  -2.3444  -2.3143
    21.2407  21.4060  21.4809  21.5296  21.6377  21.6514  22.0078  22.2105
    22.2276  22.4132  22.5887  23.0770  23.1206  23.3386  23.4391  23.5434
    23.5728  23.5765  23.8458  24.4052  24.4370  24.4823  24.6588  24.6804
    24.8911  25.0136  25.0248  25.3507  25.5560  25.5597  25.6102  25.7194
    26.2889  26.5744  26.6217  26.7710  26.9402  27.0154  27.3036  27.5501
    27.5860  27.9079  28.0155  28.3221  28.5105  28.8150  28.9338  29.1243
    29.4877  29.7609  30.1272  30.3131  30.3500  30.4126  30.6281  30.7299
    30.8486  31.2427  31.5582  31.6365  31.7244  32.1095  32.5910  33.0941
    34.1980  34.2847  35.2469  35.4565  35.9618  37.0610  37.1146  38.0423
    38.3365  39.1421  39.3363  39.3501  39.3830

          k = 0.0000 0.0000-0.2293 (  5570 PWs)   bands (ev):

   -38.6619 -38.6619 -38.6038 -38.6038 -38.5239 -38.5239 -38.4600 -38.4600
   -27.2118 -27.2118 -27.2084 -27.2084 -10.1528 -10.1528 -10.0778 -10.0778
    -9.9999  -9.9999  -9.8844  -9.8844  -9.7621  -9.7621  -9.7266  -9.7266
    -9.6123  -9.6123  -9.6114  -9.6114  -9.4932  -9.4932  -9.4437  -9.4437
    -9.3528  -9.3528  -9.1362  -9.1362  -2.5920  -2.5920  -2.5848  -2.5848
    -2.5469  -2.5469  -2.5016  -2.5016  -2.4067  -2.4067  -2.3277  -2.3277
    21.2829  21.2829  21.4271  21.4271  21.7621  21.7621  22.3409  22.3409
    22.5582  22.5582  22.7409  22.7409  22.8974  22.8974  23.6759  23.6759
    23.6785  23.6785  23.8787  23.8787  24.2632  24.2632  24.6537  24.6537
    24.7309  24.7309  25.4549  25.4549  25.6234  25.6234  25.7487  25.7487
    26.1394  26.1394  26.5581  26.5581  27.4196  27.4196  27.4527  27.4527
    27.8483  27.8483  28.1143  28.1143  28.2441  28.2441  28.9359  28.9359
    30.0202  30.0202  30.0700  30.0700  30.1175  30.1175  30.8048  30.8048
    30.8491  30.8491  31.5730  31.5730  31.9522  31.9522  33.5571  33.5571
    34.6591  34.6592  35.4759  35.4759  36.1848  36.1849  37.0534  37.0535
    38.7235  38.7236  39.2252  39.2256  39.6255

          k = 0.0000 0.2227 0.0000 (  5523 PWs)   bands (ev):

   -38.6624 -38.6366 -38.6053 -38.6052 -38.5247 -38.4959 -38.4821 -38.4690
   -27.2201 -27.2194 -27.2033 -27.2011 -10.0761 -10.0741  -9.9710  -9.9504
    -9.9052  -9.9025  -9.8989  -9.8772  -9.8138  -9.8130  -9.7508  -9.6796
    -9.6638  -9.6088  -9.5643  -9.5568  -9.4974  -9.4560  -9.4557  -9.4462
    -9.4360  -9.3555  -9.3096  -9.2580  -2.6191  -2.6170  -2.6047  -2.5592
    -2.5533  -2.5406  -2.5269  -2.4874  -2.4587  -2.4431  -2.3753  -2.3499
    21.6666  21.9533  21.9813  22.0881  22.0974  22.1520  22.2671  22.3333
    22.4710  22.6068  22.8034  22.9094  23.2038  23.3349  23.4311  23.5243
    23.5330  23.5777  23.7001  23.8545  24.3561  24.4876  24.6653  24.8621
    24.9316  24.9839  25.0818  25.4978  25.5193  25.6475  25.8439  25.9354
    26.1199  26.1967  26.4894  26.5177  27.0196  27.0582  27.2815  27.5487
    27.7032  27.9058  28.2403  28.2497  28.3120  28.3792  28.9780  29.0854
    29.1302  29.3791  29.5343  29.9606  30.0256  30.0540  30.4575  30.5117
    30.5931  30.6173  30.6889  31.0430  31.2548  31.3881  32.0230  32.1655
    32.1705  32.3629  35.8708  37.0585  37.2996  37.8770  38.6126  38.7236
    39.0037  39.1100  39.2255  39.9238  40.0156

          k = 0.0000 0.2227 0.1147 (  5573 PWs)   bands (ev):

   -38.6614 -38.6412 -38.6109 -38.6088 -38.5208 -38.5014 -38.4827 -38.4741
   -27.2196 -27.2192 -27.2042 -27.2026 -10.0833 -10.0614 -10.0119  -9.9729
    -9.9576  -9.9190  -9.8632  -9.8611  -9.8228  -9.8029  -9.7573  -9.6965
    -9.6465  -9.6037  -9.5758  -9.5666  -9.4952  -9.4832  -9.4744  -9.4583
    -9.4005  -9.3502  -9.3044  -9.2688  -2.6166  -2.6111  -2.6032  -2.5698
    -2.5639  -2.5518  -2.5211  -2.4941  -2.4655  -2.4530  -2.3690  -2.3511
    21.6423  21.7853  21.8623  21.9825  22.0679  22.2492  22.4793  22.5317
    22.6456  22.6788  22.9695  23.0813  23.1804  23.3092  23.4040  23.4553
    23.4851  23.7069  23.8013  23.8750  24.1860  24.5257  24.6399  24.6465
    24.9101  25.0133  25.0831  25.4037  25.5109  25.6370  25.7343  25.9537
    26.0051  26.2332  26.3687  26.4653  26.6941  27.1613  27.2458  27.3435
    27.6536  27.7489  27.8884  28.2607  28.2750  28.5492  29.0513  29.2642
    29.3143  29.4652  29.5488  29.8056  29.9481  30.0651  30.3171  30.4789
    30.6422  30.6598  30.7871  30.9322  31.2168  31.2652  31.9236  32.1308
    32.9313  33.5239  36.2926  36.8171  37.1313  37.5858  38.1316  38.5222
    38.5591  39.0826  39.2257  39.3503  39.8726

          k = 0.0000 0.2227-0.2293 (  5554 PWs)   bands (ev):

   -38.6518 -38.6518 -38.6098 -38.6098 -38.5089 -38.5089 -38.4770 -38.4770
   -27.2185 -27.2185 -27.2041 -27.2041 -10.0625 -10.0625 -10.0147 -10.0147
    -9.9462  -9.9462  -9.8353  -9.8353  -9.8172  -9.8172  -9.7288  -9.7287
    -9.6011  -9.6011  -9.5761  -9.5761  -9.4905  -9.4904  -9.4817  -9.4817
    -9.3566  -9.3566  -9.2851  -9.2851  -2.6003  -2.6003  -2.5862  -2.5862
    -2.5708  -2.5708  -2.5064  -2.5064  -2.4647  -2.4647  -2.3561  -2.3561
    21.5853  21.5853  21.8806  21.8806  22.2856  22.2856  22.6954  22.6954
    22.9205  22.9205  22.9564  22.9564  23.1899  23.1899  23.3104  23.3104
    23.6664  23.6664  24.1195  24.1195  24.1224  24.1224  24.6197  24.6197
    24.7043  24.7043  25.3007  25.3007  25.6751  25.6751  25.7578  25.7578
    26.1636  26.1636  26.4316  26.4316  26.5848  26.5848  27.1340  27.1340
    27.6532  27.6532  28.0051  28.0051  28.4450  28.4450  29.2085  29.2085
    29.5318  29.5318  29.8041  29.8041  29.9153  29.9153  30.2527  30.2527
    30.6214  30.6214  31.1344  31.1344  31.1382  31.1382  31.8635  31.8635
    34.5730  34.5730  35.8873  35.8873  37.3320  37.3320  37.9711  37.9711
    38.6031  38.6033  39.5219  39.5226  39.7109

          k =-0.4322 0.0000 0.0000 (  5580 PWs)   bands (ev):

   -38.6273 -38.6273 -38.6172 -38.6172 -38.5452 -38.5452 -38.4608 -38.4608
   -27.2208 -27.2208 -27.2124 -27.2124 -10.2433 -10.2433 -10.0478 -10.0478
   -10.0426 -10.0426  -9.9249  -9.9249  -9.8409  -9.8409  -9.6978  -9.6978
    -9.6195  -9.6195  -9.5813  -9.5813  -9.4300  -9.4300  -9.3793  -9.3793
    -9.3441  -9.3441  -9.1482  -9.1482  -2.6251  -2.6251  -2.5652  -2.5652
    -2.4923  -2.4923  -2.4594  -2.4594  -2.3609  -2.3609  -2.3579  -2.3579
    21.4991  21.4991  21.8640  21.8640  22.3572  22.3572  22.6780  22.6780
    22.7211  22.7211  23.0849  23.0849  23.1167  23.1167  23.4439  23.4439
    23.6697  23.6697  23.9159  23.9159  23.9697  23.9697  24.1550  24.1550
    24.9569  24.9569  25.1717  25.1717  25.1946  25.1946  26.1265  26.1265
    26.1412  26.1412  26.4608  26.4608  26.9152  26.9152  27.6648  27.6648
    28.0977  28.0977  28.6368  28.6368  28.8575  28.8575  28.8601  28.8601
    28.9602  28.9602  29.5875  29.5875  29.8146  29.8146  30.8055  30.8055
    31.0742  31.0742  31.2199  31.2199  31.8432  31.8432  32.2122  32.2122
    32.3663  32.3663  32.7360  32.7360  36.4655  36.4656  37.5790  37.5790
    38.2469  38.2469  38.7451  38.7452  39.2313

          k =-0.4322 0.0000 0.1147 (  5588 PWs)   bands (ev):

   -38.6266 -38.6266 -38.6184 -38.6184 -38.5450 -38.5450 -38.4618 -38.4618
   -27.2207 -27.2207 -27.2126 -27.2126 -10.2348 -10.2348 -10.1326 -10.1326
    -9.9751  -9.9751  -9.9372  -9.9372  -9.7864  -9.7864  -9.7203  -9.7203
    -9.6849  -9.6849  -9.5371  -9.5371  -9.4422  -9.4422  -9.3699  -9.3699
    -9.3404  -9.3404  -9.1460  -9.1460  -2.6300  -2.6300  -2.5572  -2.5572
    -2.4921  -2.4921  -2.4687  -2.4687  -2.3617  -2.3617  -2.3565  -2.3565
    21.6204  21.6204  21.7328  21.7328  22.4007  22.4007  22.6472  22.6472
    22.8402  22.8402  22.9544  22.9544  23.1839  23.1839  23.5216  23.5216
    23.7118  23.7118  23.9009  23.9009  24.1862  24.1862  24.2698  24.2698
    24.8002  24.8002  24.9002  24.9002  25.6423  25.6423  25.7100  25.7100
    26.0322  26.0322  26.0897  26.0897  27.0196  27.0196  27.3474  27.3474
    28.0962  28.0962  28.5401  28.5401  28.9530  28.9530  28.9862  28.9862
    29.1167  29.1167  29.7190  29.7190  29.9088  29.9088  30.6699  30.6699
    31.2594  31.2594  31.5028  31.5028  31.6687  31.6687  31.9735  31.9735
    32.2896  32.2896  33.5104  33.5104  35.4860  35.4861  37.7706  37.7707
    38.7542  38.7543  39.1677  39.1678  39.4854

          k =-0.4322 0.0000-0.2293 (  5592 PWs)   bands (ev):

   -38.6270 -38.6270 -38.6179 -38.6179 -38.5463 -38.5463 -38.4608 -38.4608
   -27.2207 -27.2207 -27.2126 -27.2126 -10.2277 -10.2277 -10.1620 -10.1620
   -10.0050 -10.0050  -9.8704  -9.8704  -9.7805  -9.7805  -9.7339  -9.7339
    -9.7111  -9.7111  -9.5228  -9.5228  -9.4481  -9.4481  -9.3577  -9.3577
    -9.3384  -9.3384  -9.1518  -9.1518  -2.6334  -2.6334  -2.5441  -2.5441
    -2.4868  -2.4868  -2.4850  -2.4850  -2.3637  -2.3637  -2.3576  -2.3576
    21.5490  21.5490  22.0504  22.0504  22.1524  22.1524  22.4754  22.4754
    22.8697  22.8697  23.1270  23.1270  23.3689  23.3689  23.6982  23.6982
    23.7971  23.7971  23.9118  23.9118  24.1463  24.1463  24.1708  24.1708
    24.8498  24.8498  24.9820  24.9820  25.0851  25.0851  25.5929  25.5929
    25.7627  25.7627  26.5788  26.5788  26.8981  26.8981  27.3769  27.3769
    27.8053  27.8053  28.0604  28.0604  28.9719  28.9719  29.1277  29.1277
    29.2430  29.2430  30.1270  30.1270  30.2163  30.2163  30.3156  30.3156
    31.3148  31.3148  31.5341  31.5341  31.7237  31.7237  31.9871  31.9871
    32.6505  32.6505  33.9986  33.9986  34.4583  34.4583  38.1197  38.1198
    39.0600  39.0602  39.1744  39.1748  39.6218

          k =-0.4322 0.2227 0.0000 (  5580 PWs)   bands (ev):

   -38.6234 -38.6234 -38.6180 -38.6180 -38.5250 -38.5250 -38.4832 -38.4832
   -27.2199 -27.2199 -27.2158 -27.2158 -10.1135 -10.1135 -10.0389 -10.0389
   -10.0167 -10.0167  -9.8759  -9.8759  -9.7719  -9.7719  -9.7059  -9.7059
    -9.6755  -9.6755  -9.5821  -9.5821  -9.4317  -9.4317  -9.4102  -9.4102
    -9.3494  -9.3493  -9.2894  -9.2894  -2.6166  -2.6166  -2.5908  -2.5908
    -2.4958  -2.4958  -2.4786  -2.4786  -2.4003  -2.4003  -2.3995  -2.3995
    22.0141  22.0141  22.3276  22.3276  22.5741  22.5741  22.8870  22.8870
    22.9474  22.9474  23.0078  23.0078  23.6958  23.6958  23.7988  23.7988
    23.9676  23.9676  24.1633  24.1633  24.2515  24.2515  24.3755  24.3755
    24.5213  24.5213  24.6064  24.6064  25.3171  25.3171  25.7015  25.7015
    25.8340  25.8340  26.4521  26.4521  26.6487  26.6487  27.0195  27.0195
    27.6776  27.6776  28.0830  28.0830  28.6093  28.6093  28.8423  28.8423
    29.2734  29.2734  29.4475  29.4475  29.7984  29.7984  30.1285  30.1285
    30.6091  30.6091  30.6573  30.6573  30.9003  30.9003  31.7175  31.7175
    33.4167  33.4167  33.8552  33.8552  34.9314  34.9314  35.7180  35.7180
    38.9094  38.9095  39.5244  39.5246  40.5865

          k =-0.4322 0.2227 0.1147 (  5576 PWs)   bands (ev):

   -38.6228 -38.6228 -38.6186 -38.6186 -38.5247 -38.5247 -38.4829 -38.4829
   -27.2199 -27.2199 -27.2158 -27.2158 -10.1299 -10.1299 -10.0332 -10.0332
    -9.9904  -9.9904  -9.9121  -9.9121  -9.7917  -9.7917  -9.7310  -9.7310
    -9.6261  -9.6261  -9.5381  -9.5381  -9.4405  -9.4405  -9.4227  -9.4227
    -9.3500  -9.3500  -9.2899  -9.2899  -2.6194  -2.6194  -2.5822  -2.5822
    -2.4976  -2.4976  -2.4856  -2.4856  -2.4007  -2.4007  -2.3980  -2.3980
    22.0692  22.0692  22.1929  22.1929  22.7250  22.7250  22.8327  22.8327
    23.0388  23.0388  23.2647  23.2647  23.4174  23.4174  23.8117  23.8117
    23.9081  23.9081  24.1490  24.1490  24.2320  24.2320  24.3485  24.3485
    24.6401  24.6401  24.8481  24.8481  25.4399  25.4399  25.5028  25.5028
    25.8589  25.8589  26.2111  26.2111  26.6544  26.6544  26.9636  26.9636
    27.4627  27.4627  27.8454  27.8454  28.6037  28.6037  28.8828  28.8828
    29.2473  29.2473  29.3560  29.3560  29.6407  29.6407  30.1478  30.1478
    30.5560  30.5560  30.9629  30.9629  31.1500  31.1500  32.0955  32.0955
    33.1222  33.1222  34.2657  34.2657  34.4017  34.4017  36.5446  36.5446
    39.0354  39.0354  39.3901  39.3902  40.3972

          k =-0.4322 0.2227-0.2293 (  5560 PWs)   bands (ev):

   -38.6209 -38.6209 -38.6193 -38.6193 -38.5236 -38.5236 -38.4827 -38.4827
   -27.2198 -27.2198 -27.2157 -27.2157 -10.1448 -10.1448  -9.9930  -9.9930
    -9.9838  -9.9838  -9.9480  -9.9480  -9.8300  -9.8300  -9.7211  -9.7211
    -9.5918  -9.5918  -9.4763  -9.4763  -9.4741  -9.4741  -9.4384  -9.4384
    -9.3467  -9.3467  -9.2889  -9.2889  -2.6210  -2.6210  -2.5744  -2.5744
    -2.4970  -2.4970  -2.4937  -2.4937  -2.4006  -2.4006  -2.3966  -2.3966
    21.9438  21.9438  22.5055  22.5055  22.5884  22.5884  22.8567  22.8567
    23.0076  23.0076  23.4091  23.4091  23.5494  23.5494  23.7241  23.7241
    23.8236  23.8236  24.1121  24.1121  24.1893  24.1893  24.5001  24.5001
    24.5889  24.5889  25.1107  25.1107  25.1800  25.1800  25.5085  25.5085
    25.7043  25.7043  26.3810  26.3810  26.6249  26.6249  27.0297  27.0297
    27.2594  27.2594  27.4934  27.4934  28.6089  28.6089  28.6995  28.6995
    29.1542  29.1542  29.3125  29.3125  29.6824  29.6824  30.0022  30.0022
    30.6985  30.6985  31.0857  31.0857  31.9355  31.9355  31.9609  31.9609
    33.2812  33.2813  33.6629  33.6629  34.6612  34.6612  37.6776  37.6777
    38.4525  38.4526  39.6053  39.6057  40.0120

     the Fermi energy is    30.6080 ev

!    total energy              =   -2215.91795140 Ry
     Harris-Foulkes estimate   =   -2215.91795740 Ry
     estimated scf accuracy    <       0.00000590 Ry

     The total energy is the sum of the following terms:

     one-electron contribution =     -18.40306230 Ry
     hartree contribution      =     215.47619087 Ry
     xc contribution           =    -229.77372737 Ry
     ewald contribution        =   -2182.53606924 Ry
     smearing contrib. (-TS)   =      -0.68128336 Ry

     convergence has been achieved in  11 iterations

     Forces acting on atoms (Ry/au):

     atom    1 type  1   force =     0.00000000   -0.03029268   -0.01743572
     atom    2 type  1   force =     0.00000000    0.03029268    0.01743572
     atom    3 type  1   force =     0.00000000   -0.03029268    0.01743572
     atom    4 type  1   force =     0.00000000    0.03029268   -0.01743572
     atom    5 type  1   force =     0.00000000    0.06072851   -0.06607535
     atom    6 type  1   force =     0.00000000   -0.06072851    0.06607535
     atom    7 type  1   force =     0.00000000    0.06072851    0.06607535
     atom    8 type  1   force =     0.00000000   -0.06072851   -0.06607535
     atom    9 type  2   force =     0.00000000   -0.06090424   -0.00587361
     atom   10 type  2   force =     0.00000000    0.06090424    0.00587361
     atom   11 type  2   force =     0.00000000   -0.06090424    0.00587361
     atom   12 type  2   force =     0.00000000    0.06090424   -0.00587361

     Total force =     0.228205     Total SCF correction =     0.000000


     entering subroutine stress ...

          total   stress  (Ry/bohr**3)                   (kbar)     P=  800.17
   0.00566926   0.00000000   0.00000000        833.98      0.00      0.00
   0.00000000   0.00514878   0.00000000          0.00    757.41      0.00
   0.00000000   0.00000000   0.00550023          0.00      0.00    809.11


     Writing output data file Prototype-La-oP12-Co2Si.save
 
     init_run     :      4.10s CPU      5.74s WALL (       2 calls)
     electrons    :    758.25s CPU    891.66s WALL (       5 calls)
     update_pot   :      1.89s CPU      1.92s WALL (       3 calls)
     forces       :      4.31s CPU      4.54s WALL (       5 calls)
     stress       :     11.31s CPU     11.56s WALL (       5 calls)

     Called by init_run:
     wfcinit      :      3.19s CPU      4.10s WALL (       2 calls)
     potinit      :      0.44s CPU      0.45s WALL (       2 calls)

     Called by electrons:
     c_bands      :    737.70s CPU    840.18s WALL (      50 calls)
     sum_band     :     20.15s CPU     25.80s WALL (      50 calls)
     v_of_rho     :      0.08s CPU      0.09s WALL (      55 calls)
     mix_rho      :      0.08s CPU      0.10s WALL (      50 calls)

     Called by c_bands:
     init_us_2    :      1.36s CPU      1.63s WALL (    1344 calls)
     ccgdiagg     :    662.22s CPU    744.41s WALL (     692 calls)
     wfcrot       :     77.29s CPU     96.71s WALL (     704 calls)

     Called by *cgdiagg:
     h_psi        :    475.85s CPU    564.27s WALL (  396776 calls)
     cdiaghg      :      5.02s CPU      5.45s WALL (     704 calls)

     Called by h_psi:
     add_vuspsi   :     82.60s CPU     92.48s WALL (  396776 calls)

     General routines
     calbec       :    196.28s CPU    203.14s WALL (  792968 calls)
     fft          :      0.15s CPU      0.17s WALL (     243 calls)
     fftw         :    279.00s CPU    333.41s WALL ( 1043144 calls)
     davcio       :      0.76s CPU      2.71s WALL (    1944 calls)
 
     Parallel routines
     fft_scatter  :    111.32s CPU    135.03s WALL ( 1043387 calls)
 
     PWSCF        : 13m 0.23s CPU    15m19.85s WALL

 
   This run was terminated on:  23: 4:20  22Mar2018            

=------------------------------------------------------------------------------=
   JOB DONE.
=------------------------------------------------------------------------------=
