
     Program PWSCF v.5.0.2 starts on 22Mar2018 at 22:48:59 

     This program is part of the open-source Quantum ESPRESSO suite
     for quantum simulation of materials; please cite
         "P. Giannozzi et al., J. Phys.:Condens. Matter 21 395502 (2009);
          URL http://www.quantum-espresso.org", 
     in publications or presentations arising from this work. More details at
     http://www.quantum-espresso.org/quote.php

     Parallel version (MPI), running on     4 processors
     R & G space division:  proc/nbgrp/npool/nimage =       4

     Current dimensions of program PWSCF are:
     Max number of different atomic species (ntypx) = 10
     Max number of k-points (npk) =  40000
     Max angular momentum in pseudopotentials (lmaxx) =  3
     Waiting for input...
     Reading input from standard input

     Subspace diagonalization in iterative solution of the eigenvalue problem:
     a serial algorithm will be used

 
     Parallelization info
     --------------------
     sticks:   dense  smooth     PW     G-vecs:    dense   smooth      PW
     Min         233     233     69                 5311     5311     851
     Max         234     234     70                 5314     5314     854
     Sum         933     933    277                21247    21247    3407
 


     bravais-lattice index     =            0
     lattice parameter (alat)  =       8.5346  a.u.
     unit-cell volume          =     621.6493 (a.u.)^3
     number of atoms/cell      =            8
     number of atomic types    =            2
     number of electrons       =       140.00
     number of Kohn-Sham states=           84
     kinetic-energy cutoff     =      40.0000  Ry
     charge density cutoff     =     160.0000  Ry
     convergence threshold     =      1.0E-04
     mixing beta               =       0.7000
     number of iterations used =            8  plain     mixing
     Exchange-correlation      = SLA-PZ-NOGX-NOGC ( 1 1 0 0 0)
     EXX-fraction              =        0.00
     nstep                     =           50


     celldm(1)=   8.534573  celldm(2)=   0.000000  celldm(3)=   0.000000
     celldm(4)=   0.000000  celldm(5)=   0.000000  celldm(6)=   0.000000

     crystal axes: (cart. coord. in units of alat)
               a(1) = (   1.000000   0.000000   0.000000 )  
               a(2) = (   0.000000   1.000000   0.000000 )  
               a(3) = (   0.000000   0.000000   1.000000 )  

     reciprocal axes: (cart. coord. in units 2 pi/alat)
               b(1) = (  1.000000  0.000000  0.000000 )  
               b(2) = (  0.000000  1.000000  0.000000 )  
               b(3) = (  0.000000  0.000000  1.000000 )  


     PseudoPot. # 1 for Gd read from file:
     /home/cwx6513/pp.La/Gd.UPF
     MD5 check sum: 09a8be538722f05520810cb6aac0efd2
     Pseudo is Norm-conserving, Zval = 18.0
     Generated in analytical, separable form
     Using radial grid of 1263 points,  6 beta functions with: 
                l(1) =   0
                l(2) =   0
                l(3) =   1
                l(4) =   1
                l(5) =   2
                l(6) =   3

     PseudoPot. # 2 for Sm read from file:
     /home/cwx6513/pp.La/Sm.UPF
     MD5 check sum: 5079e8b144a06bfcdbc14fb02b96ab09
     Pseudo is Norm-conserving, Zval = 16.0
     Generated in analytical, separable form
     Using radial grid of 1259 points,  6 beta functions with: 
                l(1) =   0
                l(2) =   0
                l(3) =   1
                l(4) =   1
                l(5) =   2
                l(6) =   3

     atomic species   valence    mass     pseudopotential
        Cr            18.00    51.99610     Gd( 1.00)
        Si            16.00    28.08550     Sm( 1.00)

     48 Sym. Ops., with inversion, found (24 have fractional translation)



   Cartesian axes

     site n.     atom                  positions (alat units)
         1           Cr  tau(   1) = (   0.0000000   0.5000000   0.2500000  )
         2           Cr  tau(   2) = (   0.0000000   0.5000000   0.7500000  )
         3           Cr  tau(   3) = (   0.5000000   0.7500000   0.0000000  )
         4           Cr  tau(   4) = (   0.5000000   0.2500000   0.0000000  )
         5           Cr  tau(   5) = (   0.7500000   0.0000000   0.5000000  )
         6           Cr  tau(   6) = (   0.2500000   0.0000000   0.5000000  )
         7           Si  tau(   7) = (   0.5000000   0.5000000   0.5000000  )
         8           Si  tau(   8) = (   0.0000000   0.0000000   0.0000000  )

     number of k points=    48  gaussian smearing, width (Ry)=  0.1000
                       cart. coord. in units 2pi/alat
        k(    1) = (   0.0000000   0.0000000   0.0000000), wk =   0.0095238
        k(    2) = (   0.0000000   0.0000000   0.1428571), wk =   0.0190476
        k(    3) = (   0.0000000   0.0000000   0.2857143), wk =   0.0190476
        k(    4) = (   0.0000000   0.0000000   0.4285714), wk =   0.0190476
        k(    5) = (   0.0000000   0.1666667   0.0000000), wk =   0.0190476
        k(    6) = (   0.0000000   0.1666667   0.1428571), wk =   0.0380952
        k(    7) = (   0.0000000   0.1666667   0.2857143), wk =   0.0380952
        k(    8) = (   0.0000000   0.1666667   0.4285714), wk =   0.0380952
        k(    9) = (   0.0000000   0.3333333   0.0000000), wk =   0.0190476
        k(   10) = (   0.0000000   0.3333333   0.1428571), wk =   0.0380952
        k(   11) = (   0.0000000   0.3333333   0.2857143), wk =   0.0380952
        k(   12) = (   0.0000000   0.3333333   0.4285714), wk =   0.0380952
        k(   13) = (   0.0000000  -0.5000000   0.0000000), wk =   0.0095238
        k(   14) = (   0.0000000  -0.5000000   0.1428571), wk =   0.0190476
        k(   15) = (   0.0000000  -0.5000000   0.2857143), wk =   0.0190476
        k(   16) = (   0.0000000  -0.5000000   0.4285714), wk =   0.0190476
        k(   17) = (   0.2000000   0.0000000   0.0000000), wk =   0.0190476
        k(   18) = (   0.2000000   0.0000000   0.1428571), wk =   0.0380952
        k(   19) = (   0.2000000   0.0000000   0.2857143), wk =   0.0380952
        k(   20) = (   0.2000000   0.0000000   0.4285714), wk =   0.0380952
        k(   21) = (   0.2000000   0.1666667   0.0000000), wk =   0.0380952
        k(   22) = (   0.2000000   0.1666667   0.1428571), wk =   0.0761905
        k(   23) = (   0.2000000   0.1666667   0.2857143), wk =   0.0761905
        k(   24) = (   0.2000000   0.1666667   0.4285714), wk =   0.0761905
        k(   25) = (   0.2000000   0.3333333   0.0000000), wk =   0.0380952
        k(   26) = (   0.2000000   0.3333333   0.1428571), wk =   0.0761905
        k(   27) = (   0.2000000   0.3333333   0.2857143), wk =   0.0761905
        k(   28) = (   0.2000000   0.3333333   0.4285714), wk =   0.0761905
        k(   29) = (   0.2000000  -0.5000000   0.0000000), wk =   0.0190476
        k(   30) = (   0.2000000  -0.5000000   0.1428571), wk =   0.0380952
        k(   31) = (   0.2000000  -0.5000000   0.2857143), wk =   0.0380952
        k(   32) = (   0.2000000  -0.5000000   0.4285714), wk =   0.0380952
        k(   33) = (   0.4000000   0.0000000   0.0000000), wk =   0.0190476
        k(   34) = (   0.4000000   0.0000000   0.1428571), wk =   0.0380952
        k(   35) = (   0.4000000   0.0000000   0.2857143), wk =   0.0380952
        k(   36) = (   0.4000000   0.0000000   0.4285714), wk =   0.0380952
        k(   37) = (   0.4000000   0.1666667   0.0000000), wk =   0.0380952
        k(   38) = (   0.4000000   0.1666667   0.1428571), wk =   0.0761905
        k(   39) = (   0.4000000   0.1666667   0.2857143), wk =   0.0761905
        k(   40) = (   0.4000000   0.1666667   0.4285714), wk =   0.0761905
        k(   41) = (   0.4000000   0.3333333   0.0000000), wk =   0.0380952
        k(   42) = (   0.4000000   0.3333333   0.1428571), wk =   0.0761905
        k(   43) = (   0.4000000   0.3333333   0.2857143), wk =   0.0761905
        k(   44) = (   0.4000000   0.3333333   0.4285714), wk =   0.0761905
        k(   45) = (   0.4000000  -0.5000000   0.0000000), wk =   0.0190476
        k(   46) = (   0.4000000  -0.5000000   0.1428571), wk =   0.0380952
        k(   47) = (   0.4000000  -0.5000000   0.2857143), wk =   0.0380952
        k(   48) = (   0.4000000  -0.5000000   0.4285714), wk =   0.0380952

     Dense  grid:    21247 G-vectors     FFT dimensions: (  36,  36,  36)

     Largest allocated arrays     est. size (Mb)     dimensions
        Kohn-Sham Wavefunctions         0.88 Mb     (    683,   84)
        NL pseudopotentials             1.67 Mb     (    683,  160)
        Each V/rho on FFT grid          0.18 Mb     (  11664)
        Each G-vector array             0.04 Mb     (   5314)
        G-vector shells                 0.04 Mb     (   5314)
     Largest temporary arrays     est. size (Mb)     dimensions
        Each subspace H/S matrix        0.11 Mb     (  84,  84)
        Each <psi_i|beta_j> matrix      0.21 Mb     (    160,   84)
        Arrays for rho mixing           1.42 Mb     (  11664,   8)

     Initial potential from superposition of free atoms

     Starting from uniform charge
     Starting wfc are    0 randomized atomic wfcs

     total cpu time spent up to now is        3.5 secs

     Self-consistent Calculation

     iteration #  1     ecut=    40.00 Ry     beta=0.70
     CG style diagonalization
     c_bands:  1 eigenvalues not converged
     c_bands:  3 eigenvalues not converged
     c_bands:  3 eigenvalues not converged
     c_bands:  1 eigenvalues not converged
     c_bands:  1 eigenvalues not converged
     c_bands:  1 eigenvalues not converged
     c_bands:  1 eigenvalues not converged
     c_bands:  2 eigenvalues not converged
     c_bands:  1 eigenvalues not converged
     c_bands:  1 eigenvalues not converged
     c_bands:  1 eigenvalues not converged
     c_bands:  1 eigenvalues not converged
     c_bands:  1 eigenvalues not converged
     c_bands:  1 eigenvalues not converged
     c_bands:  2 eigenvalues not converged
     c_bands:  1 eigenvalues not converged
     c_bands:  1 eigenvalues not converged
     c_bands:  1 eigenvalues not converged
     ethr =  1.00E-02,  avg # of iterations = 11.3

     total cpu time spent up to now is       50.1 secs

     total energy              =   -1411.93685114 Ry
     Harris-Foulkes estimate   =   -1646.51204460 Ry
     estimated scf accuracy    <     308.17444328 Ry

     iteration #  2     ecut=    40.00 Ry     beta=0.70
     CG style diagonalization
     c_bands:  1 eigenvalues not converged
     c_bands:  1 eigenvalues not converged
     ethr =  1.00E-02,  avg # of iterations =  8.1

     total cpu time spent up to now is       84.5 secs

     total energy              =   -1448.58830575 Ry
     Harris-Foulkes estimate   =   -1540.86459592 Ry
     estimated scf accuracy    <     146.00420564 Ry

     iteration #  3     ecut=    40.00 Ry     beta=0.70
     CG style diagonalization
     ethr =  1.00E-02,  avg # of iterations =  6.7

     total cpu time spent up to now is      112.5 secs

     total energy              =   -1500.53957371 Ry
     Harris-Foulkes estimate   =   -1518.35616083 Ry
     estimated scf accuracy    <      38.41962594 Ry

     iteration #  4     ecut=    40.00 Ry     beta=0.70
     CG style diagonalization
     ethr =  1.00E-02,  avg # of iterations =  3.9

     total cpu time spent up to now is      127.8 secs

     total energy              =   -1504.91785344 Ry
     Harris-Foulkes estimate   =   -1505.78006062 Ry
     estimated scf accuracy    <       1.63315842 Ry

     iteration #  5     ecut=    40.00 Ry     beta=0.70
     CG style diagonalization
     ethr =  1.17E-03,  avg # of iterations =  4.2

     total cpu time spent up to now is      143.4 secs

     total energy              =   -1505.67954871 Ry
     Harris-Foulkes estimate   =   -1505.75273740 Ry
     estimated scf accuracy    <       0.28032525 Ry

     iteration #  6     ecut=    40.00 Ry     beta=0.70
     CG style diagonalization
     c_bands:  1 eigenvalues not converged
     c_bands:  1 eigenvalues not converged
     c_bands:  1 eigenvalues not converged
     c_bands:  1 eigenvalues not converged
     c_bands:  1 eigenvalues not converged
     c_bands:  1 eigenvalues not converged
     c_bands:  1 eigenvalues not converged
     ethr =  2.00E-04,  avg # of iterations =  3.6

     total cpu time spent up to now is      157.3 secs

     total energy              =   -1505.66210374 Ry
     Harris-Foulkes estimate   =   -1505.70506924 Ry
     estimated scf accuracy    <       0.09279106 Ry

     iteration #  7     ecut=    40.00 Ry     beta=0.70
     CG style diagonalization
     c_bands:  2 eigenvalues not converged
     c_bands:  2 eigenvalues not converged
     c_bands:  1 eigenvalues not converged
     ethr =  6.63E-05,  avg # of iterations =  3.6

     total cpu time spent up to now is      171.6 secs

     total energy              =   -1505.68628846 Ry
     Harris-Foulkes estimate   =   -1505.68654092 Ry
     estimated scf accuracy    <       0.00094186 Ry

     iteration #  8     ecut=    40.00 Ry     beta=0.70
     CG style diagonalization
     c_bands:  3 eigenvalues not converged
     c_bands:  1 eigenvalues not converged
     c_bands:  1 eigenvalues not converged
     c_bands:  1 eigenvalues not converged
     c_bands:  1 eigenvalues not converged
     c_bands:  1 eigenvalues not converged
     c_bands:  2 eigenvalues not converged
     c_bands:  1 eigenvalues not converged
     c_bands:  1 eigenvalues not converged
     c_bands:  1 eigenvalues not converged
     ethr =  6.73E-07,  avg # of iterations =  5.5

     total cpu time spent up to now is      193.4 secs

     total energy              =   -1505.68717588 Ry
     Harris-Foulkes estimate   =   -1505.68737698 Ry
     estimated scf accuracy    <       0.00047570 Ry

     iteration #  9     ecut=    40.00 Ry     beta=0.70
     CG style diagonalization
     c_bands:  1 eigenvalues not converged
     c_bands:  1 eigenvalues not converged
     c_bands:  1 eigenvalues not converged
     c_bands:  1 eigenvalues not converged
     c_bands:  1 eigenvalues not converged
     ethr =  3.40E-07,  avg # of iterations =  3.2

     total cpu time spent up to now is      206.4 secs

     End of self-consistent calculation

          k = 0.0000 0.0000 0.0000 (  2601 PWs)   bands (ev):

   -26.7678 -26.3837 -26.3837 -25.3947 -25.3947 -25.3947 -13.9843 -13.8668
    -0.9110  -0.9110  -0.2686   1.3127   1.3127   1.3127   2.8808   2.8808
     2.8808   2.9732   2.9732   2.9732   3.4623   3.4623   3.4623   5.2118
     5.2118   5.2118  10.5090  10.5090  10.5090  10.6885  10.6885  10.6885
    31.2567  31.2567  31.5308  31.5308  31.5308  31.6713  33.3887  33.7003
    34.3227  34.3227  34.3227  35.0613  35.0613  35.3816  35.4249  35.4249
    35.4249  38.0049  38.0049  38.6768  38.6768  38.6768  39.6444  39.6444
    39.6444  40.4739  40.4739  40.4739  40.7288  40.7288  40.7288  42.1898
    42.1898  42.5768  42.5768  43.7334  43.7334  43.7334  46.6675  46.6675
    46.6675  49.8303  49.8303  49.8303  51.1514  51.1514  51.1515  51.5533
    52.9354  52.9354  52.9354  54.6256

          k = 0.0000 0.0000 0.1429 (  2657 PWs)   bands (ev):

   -26.7416 -26.4000 -26.3478 -25.4651 -25.4055 -25.4055 -13.9833 -13.8795
    -0.9259  -0.8006  -0.2062   1.3249   1.3249   1.4408   2.6856   2.6856
     2.8884   2.9755   3.1441   3.1441   3.4028   3.4028   3.4168   4.8488
     5.2058   5.2058  10.4261  10.5314  10.5314  10.6379  10.6988  10.6988
    31.0266  31.5029  31.5256  31.6874  31.6874  32.0364  33.4537  33.8562
    33.8562  33.9695  34.2993  34.5626  35.0181  35.3563  35.7336  35.7640
    35.7640  37.8273  37.8273  38.2686  38.3369  38.8498  39.0999  40.0293
    40.0293  40.2463  40.2463  40.3120  40.5883  41.3110  41.3110  41.7530
    42.1143  42.5665  43.7009  44.0640  44.0640  44.1989  45.7646  45.7646
    46.5982  48.3485  50.4539  50.4539  50.9526  51.5772  51.5773  52.5141
    52.5860  53.0568  53.0569  53.7874

          k = 0.0000 0.0000 0.2857 (  2677 PWs)   bands (ev):

   -26.6751 -26.4428 -26.2423 -25.6237 -25.4073 -25.4073 -13.9781 -13.9062
    -0.9120  -0.7106   0.3067   1.3551   1.3551   1.7850   2.5244   2.5244
     2.8117   3.0398   3.2622   3.2622   3.3439   3.3636   3.3636   3.8766
     5.2043   5.2043  10.2792  10.4960  10.5932  10.5932  10.7235  10.7235
    30.6811  31.6491  31.6802  32.0804  32.0804  32.9023  33.1522  33.1522
    33.6277  33.7768  34.2270  34.3315  34.8366  36.0062  36.0062  36.1484
    36.4353  37.4435  37.4435  37.8069  38.8047  39.1378  39.1378  39.2299
    39.3505  40.2225  40.2225  40.2650  40.3518  41.0842  41.7452  42.3095
    42.3095  42.5400  44.1889  44.1889  44.9674  45.3957  45.4693  45.7271
    45.7271  46.4088  50.7068  50.7068  51.2856  51.7039  51.7039  51.8743
    52.4011  54.0493  54.1164  54.2415

          k = 0.0000 0.0000 0.4286 (  2658 PWs)   bands (ev):

   -26.5875 -26.5031 -26.0625 -25.8401 -25.4056 -25.4056 -13.9631 -13.9371
    -0.8621  -0.7778   1.3222   1.3777   1.3777   2.2485   2.4585   2.4585
     2.4792   2.7428   3.1375   3.2016   3.2016   3.2468   3.4570   3.4570
     5.2104   5.2104  10.2263  10.3276  10.6419  10.6419  10.7429  10.7429
    30.8320  31.5094  31.8272  31.9835  32.4433  32.4433  32.6887  32.6887
    33.8606  34.0771  34.4431  34.5998  35.8115  36.2527  36.2527  36.4533
    36.8482  37.0318  37.0318  37.8146  38.5625  38.5625  39.0170  39.6579
    40.0572  40.0700  40.2671  40.4591  40.4591  40.6275  41.0484  42.0900
    42.8444  42.8444  43.0375  43.0375  43.8040  45.6197  45.6285  46.1007
    47.7155  47.7155  50.3084  50.3084  51.1843  51.8196  51.8196  52.1674
    52.7098  53.2049  53.2050  53.4850

          k = 0.0000 0.1667 0.0000 (  2653 PWs)   bands (ev):

   -26.7314 -26.4038 -26.3348 -25.4855 -25.4057 -25.4057 -13.9828 -13.8828
    -0.9251  -0.7696  -0.1632   1.3314   1.3314   1.4902   2.6539   2.6539
     2.8853   2.9836   3.1776   3.1776   3.3911   3.3911   3.4076   4.7268
     5.2077   5.2077  10.4028  10.5409  10.5409  10.6207  10.7027  10.7027
    30.9535  31.5182  31.5622  31.7415  31.7415  32.2163  33.4763  33.7373
    33.7373  34.0332  34.2917  34.3511  34.9973  35.4626  35.8183  35.8324
    35.8324  37.6996  37.6996  38.2590  38.4525  38.9123  39.0411  40.0407
    40.0407  40.1195  40.1195  40.2735  40.5475  41.5018  41.5018  41.6393
    42.0786  42.5557  44.0102  44.2412  44.2412  44.3249  45.5186  45.5186
    46.5745  47.9163  50.5812  50.5812  50.9901  51.6395  51.6395  52.4688
    52.7580  53.1940  53.1941  53.5446

          k = 0.0000 0.1667 0.1429 (  2662 PWs)   bands (ev):

   -26.7073 -26.3873 -26.3304 -25.4875 -25.4634 -25.4062 -13.9827 -13.8931
    -0.8704  -0.6488  -0.1350   1.3568   1.4500   1.4991   2.5446   2.6023
     2.9207   3.0199   3.1982   3.2450   3.2938   3.3558   3.4632   4.7170
     4.8408   5.2090  10.4281  10.4694  10.5689  10.6224  10.6556  10.7141
    31.1254  31.3450  31.6926  31.8998  32.0592  32.2846  33.3603  33.3788
    33.8347  33.9250  34.3165  34.3872  35.1658  35.3077  35.4887  36.1942
    36.2198  36.9455  37.3643  38.5704  38.5967  38.6438  39.0927  39.8665
    39.9694  40.1346  40.1689  40.6552  40.8209  41.2960  41.4764  41.9154
    42.0069  43.0991  43.6010  44.4392  44.6650  44.8224  45.0091  45.2628
    46.1490  47.9584  49.3780  51.0343  51.0967  52.1631  52.3795  52.6978
    52.8905  53.2981  53.4020  53.5914

          k = 0.0000 0.1667 0.2857 (  2666 PWs)   bands (ev):

   -26.6377 -26.4084 -26.2419 -25.6264 -25.4853 -25.4065 -13.9799 -13.9174
    -0.8577  -0.4680   0.2865   1.4127   1.5108   1.7866   2.4065   2.5300
     2.8967   2.9728   3.2359   3.2504   3.3095   3.3760   3.4622   3.8863
     4.7145   5.2115  10.3171  10.4979  10.5093  10.6316  10.6473  10.7358
    30.9118  31.5661  31.8391  32.2973  32.3519  32.6411  32.8502  33.3843
    33.7685  33.8570  34.0708  34.5540  34.8905  35.4464  36.0081  36.4270
    36.6328  36.9825  37.0847  38.0290  38.6323  38.6830  39.2177  39.2416
    39.6552  39.9203  40.1691  40.6737  40.8569  41.2275  41.9861  42.1069
    42.4941  43.0273  43.8205  44.1475  44.8081  44.9641  45.7837  45.7911
    46.0697  46.1454  49.0865  51.2934  51.5774  51.8036  52.2116  52.7714
    52.8237  53.3441  54.0684  54.3743

          k = 0.0000 0.1667 0.4286 (  2658 PWs)   bands (ev):

   -26.5560 -26.4612 -26.0663 -25.8427 -25.4843 -25.4074 -13.9682 -13.9459
    -0.8543  -0.4833   1.2715   1.4574   1.5485   2.2038   2.3456   2.4277
     2.6337   2.7674   2.8695   3.1820   3.2828   3.3849   3.4276   3.4667
     4.7156   5.2188  10.2520  10.3463  10.5546  10.6622  10.6804  10.7566
    30.9783  31.5366  31.9997  32.1222  32.3699  32.4875  32.6989  32.9887
    33.8219  34.2825  34.3748  34.6563  35.4658  35.8020  36.3173  36.3928
    36.8257  37.1323  37.2054  37.6993  38.2072  38.7681  38.8286  39.3328
    39.7655  40.0603  40.3039  40.5358  40.9974  41.1366  41.7462  41.7541
    42.3801  42.8801  43.3699  43.3812  44.2659  45.4257  45.6798  45.7308
    47.0140  47.8290  49.1252  50.8559  51.0220  51.5900  51.9221  52.5656
    52.8040  53.2653  53.6556  54.2027

          k = 0.0000 0.3333 0.0000 (  2677 PWs)   bands (ev):

   -26.6468 -26.4623 -26.1891 -25.6956 -25.4056 -25.4056 -13.9744 -13.9167
    -0.9003  -0.7229   0.5952   1.3633   1.3633   1.9339   2.4917   2.4917
     2.7469   3.0698   3.2401   3.2401   3.3168   3.3982   3.3982   3.4962
     5.2009   5.2009  10.2436  10.4393  10.6134  10.6134  10.7304  10.7304
    30.6637  31.6993  31.7124  32.2225  32.2225  32.5354  32.9565  32.9565
    33.7022  34.1866  34.3110  34.4485  34.7553  36.0424  36.0424  36.2496
    36.8655  37.4067  37.4067  37.7931  38.6380  38.8130  38.8130  39.3615
    39.5740  40.2956  40.2955  40.2980  40.2995  40.8933  41.5425  42.5598
    42.5598  42.7518  43.7083  43.7083  44.2958  45.2033  45.8136  46.3214
    46.4495  46.4495  50.5731  50.5732  51.1460  51.7194  51.7194  51.8737
    52.5792  53.5866  54.2437  54.2438

          k = 0.0000 0.3333 0.1429 (  2660 PWs)   bands (ev):

   -26.6171 -26.4328 -26.1906 -25.6936 -25.4653 -25.4068 -13.9765 -13.9242
    -0.8578  -0.5479   0.5829   1.4151   1.4802   1.9320   2.4028   2.5061
     2.8298   2.9735   3.2232   3.2389   3.3363   3.4101   3.4363   3.5085
     4.8430   5.2159  10.2720  10.4489  10.5463  10.6432  10.6712  10.7412
    30.8300  31.6749  31.9631  32.2050  32.3827  32.4290  32.7418  33.2081
    33.7913  34.1040  34.3617  34.5164  34.7880  35.5490  36.2227  36.3439
    36.7778  37.1770  37.2997  37.7838  38.3875  38.6419  39.1808  39.4829
    39.6951  39.7657  40.3260  40.5115  40.6655  41.0978  42.0206  42.1372
    42.5736  42.9752  43.5427  43.7788  44.6640  45.1517  45.7043  45.8733
    46.2960  46.6607  49.3987  51.0721  51.4130  51.7425  52.1829  52.5625
    52.6335  53.2225  53.8427  54.4752

          k = 0.0000 0.3333 0.2857 (  2658 PWs)   bands (ev):

   -26.5598 -26.3571 -26.1810 -25.7048 -25.6166 -25.4081 -13.9798 -13.9437
    -0.8752   0.1071   0.5675   1.5382   1.7699   1.9200   2.2526   2.5380
     2.7172   2.9618   3.1623   3.2056   3.3608   3.4502   3.5109   3.5122
     3.8960   5.2187  10.3180  10.3994  10.4736  10.5352  10.7046  10.7625
    31.0726  31.4374  31.8488  32.1500  32.4266  32.8579  32.8857  33.7665
    33.8337  34.3480  34.5467  34.6110  35.0527  35.0837  36.0664  36.4668
    36.8963  37.0372  37.5074  37.6028  37.7586  38.2902  38.5666  38.9074
    39.4736  39.5498  40.9889  41.1423  41.1440  41.4209  42.2574  42.3564
    42.8384  43.2043  43.6293  44.1089  44.5480  45.1194  45.5984  45.7009
    45.8274  47.1521  47.4109  50.7786  51.0455  51.9097  52.2073  52.5260
    53.3729  53.4255  54.0377  54.5084

          k = 0.0000 0.3333 0.4286 (  2654 PWs)   bands (ev):

   -26.5220 -26.3022 -26.0706 -25.8553 -25.6847 -25.4065 -13.9772 -13.9642
    -0.8991   0.4510   1.2410   1.6645   1.8851   2.1428   2.1788   2.4858
     2.4879   2.6079   2.9201   3.1314   3.2410   3.4390   3.4926   3.5261
     3.5373   5.2162  10.2653  10.3776  10.4089  10.5034  10.7523  10.7814
    31.0403  31.2963  31.7280  31.8917  32.5471  32.9110  33.3839  33.8911
    34.0806  34.4455  34.6354  35.1171  35.3556  35.8071  35.9209  36.0919
    36.7329  36.7720  37.2747  37.5637  37.8569  37.8705  38.4755  38.7003
    39.1650  39.7234  41.1609  41.2592  41.5561  41.5866  42.2459  42.4643
    42.5122  42.9609  43.4967  44.1947  44.3913  45.1033  45.3746  46.1318
    46.4367  46.7963  48.0891  49.0121  50.5455  51.4049  52.2313  52.9134
    53.1184  53.3903  53.9989  54.3142

          k = 0.0000-0.5000 0.0000 (  2666 PWs)   bands (ev):

   -26.5450 -26.5450 -25.9546 -25.9546 -25.4059 -25.4059 -13.9513 -13.9513
    -0.8254  -0.8254   1.3806   1.3806   1.9225   1.9225   2.4498   2.4498
     2.4689   2.4689   3.1873   3.1873   3.1911   3.1911   3.4700   3.4700
     5.2102   5.2102  10.2586  10.2586  10.6479  10.6479  10.7446  10.7446
    31.1302  31.1302  31.8915  31.8915  32.5044  32.5044  32.6202  32.6202
    33.9753  33.9753  34.5071  34.5071  36.5007  36.5007  36.6119  36.6119
    36.6926  36.6926  36.9100  36.9100  38.5577  38.5577  39.7872  39.7872
    40.2697  40.2697  40.5190  40.5190  40.5316  40.5316  40.6918  40.6918
    42.7112  42.7112  43.0533  43.0533  44.8036  44.8036  45.8885  45.8885
    48.0914  48.0914  50.2421  50.2422  51.6995  51.6995  51.9637  51.9638
    52.6757  52.6758  53.0311  53.0312

          k = 0.0000-0.5000 0.1429 (  2666 PWs)   bands (ev):

   -26.5382 -26.4972 -25.9610 -25.9541 -25.4643 -25.4065 -13.9567 -13.9567
    -0.8448  -0.5780   1.4425   1.4584   1.8962   1.9448   2.3574   2.3647
     2.4840   2.6341   2.9046   3.1743   3.2681   3.3951   3.4114   3.4743
     4.8400   5.2141  10.2617  10.2909  10.5844  10.6782  10.6854  10.7571
    31.1240  31.2946  31.9583  32.2346  32.3505  32.3910  32.6854  32.8377
    33.8517  34.2283  34.4165  34.5951  35.7015  36.3236  36.4534  36.4567
    36.5413  36.8577  37.3464  37.7025  37.8060  38.7479  39.5203  39.6084
    39.9746  40.2719  40.3219  40.4969  40.5699  41.0297  41.0421  41.2939
    42.8185  42.8257  42.9712  43.1489  44.8217  45.1688  45.6362  45.6383
    47.5208  48.1513  49.5990  50.6580  50.8014  51.5448  52.2425  52.2522
    52.8379  52.9033  53.5150  53.9660

          k = 0.0000-0.5000 0.2857 (  2658 PWs)   bands (ev):

   -26.5213 -26.3591 -25.9744 -25.9553 -25.6210 -25.4079 -13.9683 -13.9683
    -0.8909   0.1326   1.6094   1.6222   1.8777   2.0412   2.2137   2.2758
     2.5086   2.5642   2.8568   3.1365   3.2893   3.4105   3.4831   3.5154
     3.8966   5.2153  10.2599  10.3601  10.4337  10.5508  10.7377  10.7776
    31.0522  31.3850  31.8422  31.8944  32.3583  32.8329  33.2261  33.8674
    34.0116  34.0963  34.6241  34.9028  35.5517  35.9049  36.2708  36.3316
    36.3728  36.5392  37.5633  37.7143  38.0237  38.0571  38.2700  39.1372
    39.4577  39.7842  40.4018  41.0567  41.7166  41.7402  41.8372  42.0378
    42.6741  42.8644  43.6439  43.6697  44.3684  45.2154  45.6074  45.8087
    46.5162  47.7388  48.2629  49.0396  51.0654  51.2744  51.9101  52.6411
    52.9953  53.7965  54.3320  54.5387

          k = 0.0000-0.5000 0.4286 (  2662 PWs)   bands (ev):

   -26.5117 -26.1743 -25.9867 -25.9717 -25.8078 -25.4058 -13.9778 -13.9778
    -0.9201   1.1836   1.7281   1.8638   1.8733   2.1183   2.1715   2.2165
     2.2333   2.4523   2.5491   3.0895   3.1495   3.1643   3.5038   3.5097
     3.5664   5.2131  10.2237  10.3377  10.3848  10.4705  10.7895  10.7940
    30.9840  31.0334  31.4269  31.9535  33.1116  33.1563  33.9538  33.9774
    34.0507  34.2483  35.1124  35.3696  35.6029  35.7398  35.8128  36.0049
    36.2195  36.6708  37.1593  37.2053  37.8734  38.1713  38.3169  38.4506
    39.3593  39.8392  40.6331  40.8989  41.7369  42.1398  42.3215  42.4637
    42.8202  43.0304  43.6447  44.0429  44.4403  44.9798  45.2546  45.9318
    46.9196  47.2814  47.7594  48.4846  50.1266  50.2272  52.3517  52.5005
    53.2118  53.3135  53.8084  54.5993

          k = 0.2000 0.0000 0.0000 (  2661 PWs)   bands (ev):

   -26.7199 -26.4126 -26.3140 -25.5186 -25.4058 -25.4058 -13.9818 -13.8890
    -0.9231  -0.7352  -0.0758   1.3380   1.3380   1.5625   2.6096   2.6096
     2.8687   2.9970   3.2175   3.2175   3.3749   3.3749   3.3928   4.5196
     5.2045   5.2045  10.3668  10.5548  10.5548  10.5922  10.7083  10.7083
    30.8547  31.5475  31.6032  31.8271  31.8271  32.5133  33.5128  33.5675
    33.5675  33.9755  34.1866  34.2779  34.9612  35.6636  35.9096  35.9096
    35.9271  37.5664  37.5664  38.1683  38.6187  39.0150  39.0377  39.8388
    39.8388  40.1179  40.1179  40.2300  40.4885  41.4782  41.7550  41.7550
    42.0122  42.5320  44.4517  44.5063  44.5568  44.5568  45.1633  45.1633
    46.5356  47.2539  50.7047  50.7047  51.0776  51.6788  51.6788  52.2395
    52.9880  53.3042  53.4546  53.4547

          k = 0.2000 0.0000 0.1429 (  2667 PWs)   bands (ev):

   -26.6927 -26.3931 -26.3127 -25.5197 -25.4643 -25.4074 -13.9824 -13.8983
    -0.8672  -0.5989  -0.0651   1.3673   1.4561   1.5667   2.5070   2.5771
     2.9205   3.0218   3.2183   3.2584   3.2886   3.3414   3.4618   4.5122
     4.8386   5.2096  10.3952  10.4827  10.5829  10.5938  10.6563  10.7185
    31.0385  31.4121  31.7279  31.9863  32.1095  32.5467  33.2310  33.2821
    33.7786  33.9512  34.1458  34.4224  35.1044  35.4003  35.5759  36.3057
    36.3164  36.8595  37.2296  38.5130  38.6351  38.7396  39.1249  39.6346
    39.9553  40.0405  40.1219  40.6321  40.7800  41.3335  41.6817  41.9822
    42.0634  43.0541  43.8791  44.5449  44.5682  44.8589  45.0687  45.3150
    46.0967  47.4137  49.3831  51.1386  51.1917  52.1525  52.4844  52.6017
    52.9859  53.3254  53.5562  53.8510

          k = 0.2000 0.0000 0.2857 (  2659 PWs)   bands (ev):

   -26.6218 -26.3949 -26.2395 -25.6273 -25.5172 -25.4069 -13.9804 -13.9219
    -0.8574  -0.3407   0.2866   1.4353   1.5740   1.7880   2.3691   2.5365
     2.9279   2.9295   3.2301   3.2731   3.2856   3.3886   3.4775   3.8863
     4.5151   5.2144  10.3308  10.4670  10.5109  10.6188  10.6468  10.7404
    30.9853  31.4974  31.8267  32.3804  32.4941  32.7259  32.7342  33.3817
    33.7524  33.8688  34.1506  34.5845  34.9146  35.3284  36.0432  36.4220
    36.7089  36.9249  37.0966  38.0268  38.5466  38.5777  39.1335  39.1958
    39.4279  39.8061  40.4329  40.7781  41.1889  41.2026  41.8585  42.1408
    42.6933  43.0990  43.8897  44.0913  44.6624  44.9790  45.7258  45.7867
    46.0916  46.2339  48.6182  51.4650  51.6227  51.7986  52.3074  52.4718
    53.1761  53.5740  53.9297  54.2460

          k = 0.2000 0.0000 0.4286 (  2660 PWs)   bands (ev):

   -26.5479 -26.4383 -26.0679 -25.8448 -25.5172 -25.4077 -13.9701 -13.9492
    -0.8627  -0.3422   1.2610   1.4902   1.6059   2.1897   2.3092   2.4355
     2.6481   2.7922   2.7953   3.1725   3.3152   3.3594   3.4547   3.4746
     4.5129   5.2199  10.2599  10.3549  10.5192  10.6313  10.6940  10.7608
    31.0112  31.5333  31.9794  32.1117  32.2465  32.6642  32.8038  33.1634
    33.8091  34.2719  34.4175  34.7057  35.3899  35.7949  36.2926  36.3381
    36.7381  37.2157  37.2978  37.5096  38.3137  38.5973  38.7342  38.9969
    39.7513  39.9340  40.5053  40.6599  41.1179  41.4792  41.6751  41.8881
    42.3574  42.8870  43.4515  43.5190  44.3674  45.3700  45.5919  45.7266
    46.7838  47.8700  48.6709  50.5515  51.2675  51.4396  51.9635  52.4532
    53.0208  53.4208  53.9448  54.4725

          k = 0.2000 0.1667 0.0000 (  2672 PWs)   bands (ev):

   -26.6844 -26.3896 -26.3079 -25.5222 -25.4848 -25.4074 -13.9826 -13.9015
    -0.8639  -0.5422  -0.0558   1.3782   1.4955   1.5709   2.4803   2.5679
     2.9319   3.0159   3.2206   3.2601   3.2924   3.3241   3.4681   4.5111
     4.7144   5.2082  10.4013  10.4614  10.5923  10.5939  10.6387  10.7194
    31.0826  31.3567  31.7360  32.0406  32.2910  32.5543  33.1677  33.2088
    33.8027  33.9193  34.0961  34.4816  35.1361  35.3155  35.5977  36.3850
    36.4059  36.7714  37.1351  38.5606  38.6387  38.7461  39.0238  39.5624
    39.8869  39.9690  40.1625  40.7704  40.8435  41.3119  41.7033  42.0163
    42.1498  43.1545  43.8240  44.4280  44.6178  44.8241  45.1413  45.4516
    46.0089  47.3298  49.1237  51.2214  51.2347  52.1804  52.7081  52.7541
    52.9363  53.2655  53.6291  53.9225

          k = 0.2000 0.1667 0.1429 (  2665 PWs)   bands (ev):

   -26.6523 -26.3593 -26.3199 -25.5222 -25.4865 -25.4617 -13.9833 -13.9104
    -0.6562  -0.5361  -0.0583   1.4888   1.5213   1.5856   2.3607   2.7146
     2.8139   3.1142   3.1787   3.2425   3.2630   3.3982   3.4376   4.5124
     4.7140   4.8429  10.4317  10.4876  10.5210  10.6031  10.6419  10.6715
    31.3218  31.5515  31.6977  32.2112  32.3687  32.5958  33.1447  33.1476
    33.4721  33.5733  34.5689  34.8268  35.0283  35.2074  35.3143  36.2739
    36.5378  36.6773  36.8373  38.1546  38.6747  38.9072  39.7535  39.9309
    40.0514  40.2152  40.4784  40.5643  40.6686  41.0261  41.1215  42.0237
    42.0534  43.6592  43.9914  44.2886  44.3155  44.9932  45.2143  45.4574
    45.6168  47.5750  49.4592  49.9241  51.6189  52.7967  52.8036  52.8800
    53.3695  53.5689  53.6866  53.7364

          k = 0.2000 0.1667 0.2857 (  2655 PWs)   bands (ev):

   -26.5754 -26.3610 -26.2496 -25.6286 -25.5186 -25.4838 -13.9831 -13.9327
    -0.5509  -0.3354   0.2543   1.5755   1.6196   1.8042   2.2681   2.6774
     2.8398   2.9817   3.1516   3.2675   3.3273   3.3916   3.4485   3.8950
     4.5183   4.7209  10.3706  10.5023  10.5203  10.5524  10.6269  10.6663
    31.2753  31.7917  32.0079  32.4241  32.5038  32.6406  32.8847  33.3607
    33.5735  33.6919  34.1613  34.7584  34.8093  35.1953  35.7657  36.0956
    36.3057  37.0686  37.2917  38.2364  38.3864  38.8828  39.4773  39.8679
    39.9942  40.0805  40.1730  40.4513  40.7173  41.1171  41.5374  42.2124
    42.6193  43.2639  43.4343  44.3855  44.8038  45.0900  45.2552  45.5188
    46.0576  46.6393  49.0898  49.8061  52.0495  52.2933  52.4059  52.9155
    53.2354  53.7518  53.9513  54.0301

          k = 0.2000 0.1667 0.4286 (  2655 PWs)   bands (ev):

   -26.4933 -26.4162 -26.0727 -25.8478 -25.5179 -25.4848 -13.9759 -13.9577
    -0.5302  -0.3606   1.2259   1.6099   1.6702   2.1805   2.2211   2.5797
     2.6181   2.7396   2.9299   3.0291   3.3697   3.4000   3.4051   3.4408
     4.5194   4.7211  10.2972  10.3643  10.5544  10.6034  10.6430  10.6779
    31.2510  31.6383  32.2488  32.4337  32.6002  32.6234  32.8226  33.0563
    33.7807  33.8663  34.3583  34.4676  35.3104  35.4754  35.6834  35.9733
    37.0585  37.2838  37.6684  38.2444  38.3837  38.6818  39.0070  39.4784
    39.6843  39.9753  40.0101  40.5822  40.8844  41.3736  41.5468  42.0332
    42.5130  42.5520  43.5442  44.1178  44.8614  44.9278  45.0895  45.7454
    46.7079  47.2275  49.3408  49.9716  50.7613  51.3164  52.4217  52.8431
    53.2694  53.7313  53.8819  53.9619

          k = 0.2000 0.3333 0.0000 (  2656 PWs)   bands (ev):

   -26.5953 -26.4077 -26.1906 -25.6956 -25.5169 -25.4064 -13.9780 -13.9312
    -0.8580  -0.3300   0.5702   1.4569   1.5798   1.9247   2.3405   2.5225
     2.8785   2.8852   3.2103   3.2844   3.2890   3.4246   3.4740   3.5111
     4.5145   5.2153  10.2931  10.4532  10.4921  10.6238  10.6663  10.7495
    30.9468  31.5950  31.8748  32.3382  32.4496  32.6287  32.6926  33.3094
    33.7646  34.2579  34.3617  34.4513  34.8749  35.4256  36.1573  36.3341
    36.8836  37.1828  37.2121  37.8267  38.1284  38.5119  39.0442  39.1413
    39.5680  39.7786  40.5679  40.6906  41.1465  41.2075  41.9600  42.1688
    42.7995  42.8892  43.7988  43.8164  44.6578  45.1290  45.6568  45.6798
    46.1261  46.8076  48.5839  51.3737  51.4178  51.8728  51.9700  52.3991
    53.1578  53.5407  53.7733  54.3390

          k = 0.2000 0.3333 0.1429 (  2657 PWs)   bands (ev):

   -26.5600 -26.3855 -26.1965 -25.6977 -25.5174 -25.4647 -13.9809 -13.9388
    -0.6230  -0.3359   0.5445   1.5572   1.6171   1.9323   2.2702   2.6186
     2.8230   2.9593   3.1095   3.2657   3.3682   3.3836   3.4529   3.5237
     4.5158   4.8466  10.3223  10.4622  10.5161  10.5957  10.6312  10.6893
    31.1556  31.8368  32.1585  32.2919  32.3869  32.6065  32.8320  33.4000
    33.6205  33.8351  34.3973  34.6120  34.7575  35.3614  35.7851  36.1211
    36.5770  37.1882  37.4438  38.0169  38.5322  38.7698  39.2107  39.6041
    39.7769  39.9028  40.1902  40.4061  40.8494  41.3142  41.9270  42.2036
    42.6282  42.8937  43.3024  44.3579  44.9676  45.0022  45.3102  45.6414
    46.1393  46.6715  49.0213  50.0911  51.7367  51.9386  52.4746  52.8597
    53.2110  53.6579  53.8129  54.0569

          k = 0.2000 0.3333 0.2857 (  2656 PWs)   bands (ev):

   -26.4827 -26.3180 -26.1984 -25.7032 -25.6205 -25.5185 -13.9863 -13.9572
    -0.4014   0.0921   0.5121   1.7137   1.8301   1.9453   2.1780   2.7042
     2.7703   2.9278   3.1160   3.1717   3.3360   3.4008   3.4488   3.5447
     3.9022   4.5224  10.3797  10.4440  10.4855  10.5444  10.5783  10.6481
    31.5146  31.8147  32.1938  32.4170  32.4999  32.8546  33.2132  33.2526
    33.8151  34.0011  34.4346  34.5013  34.6632  34.8929  35.5608  36.0650
    36.4779  37.3531  37.5753  38.1770  38.4797  38.6101  39.0372  39.3368
    39.8251  39.9314  40.1624  40.8262  41.3233  41.6981  41.7434  42.2991
    42.7335  42.8926  43.3784  44.2079  44.5486  44.8404  45.6126  45.6564
    45.8252  46.8877  48.1882  49.5881  51.0983  51.6998  52.5640  53.0888
    53.2624  53.4000  53.7773  54.5245

          k = 0.2000 0.3333 0.4286 (  2643 PWs)   bands (ev):

   -26.4274 -26.2829 -26.0771 -25.8551 -25.6878 -25.5199 -13.9864 -13.9758
    -0.4176   0.4192   1.1862   1.8029   1.9383   2.1220   2.1700   2.5980
     2.6092   2.6745   2.9412   3.0589   3.2506   3.3765   3.4147   3.4515
     3.5560   4.5304  10.3333  10.4021  10.4325  10.5117  10.6288  10.6622
    31.4569  31.6227  32.0895  32.5864  32.9850  33.0152  33.1027  33.4880
    34.0235  34.1469  34.3394  34.5418  34.7975  35.0495  35.3998  35.7460
    36.9765  37.2624  37.8250  38.1211  38.4085  38.6547  38.7510  39.1035
    39.6293  39.8482  40.0788  40.9751  41.2715  41.7247  41.9646  42.5477
    42.6033  42.8307  43.1998  44.2790  44.4344  45.2176  45.3865  45.8249
    46.2963  46.9574  47.7378  49.3911  49.9266  51.1499  51.8647  52.4118
    53.0700  53.2424  54.3388  55.1272

          k = 0.2000-0.5000 0.0000 (  2658 PWs)   bands (ev):

   -26.5316 -26.4501 -25.9653 -25.9538 -25.5174 -25.4064 -13.9610 -13.9609
    -0.8617  -0.3457   1.4976   1.5227   1.8846   1.9720   2.3061   2.3249
     2.4977   2.7265   2.7734   3.1618   3.3262   3.3675   3.4516   3.4865
     4.5160   5.2193  10.2629  10.3175  10.5279  10.6338  10.7014  10.7658
    31.0980  31.4002  31.9948  32.1167  32.1865  32.6506  32.8611  33.1275
    33.8252  34.2526  34.4587  34.6655  35.5528  36.2716  36.2886  36.4094
    36.4303  36.9753  37.4765  37.5044  37.9781  38.5814  38.9581  39.2307
    40.0089  40.0839  40.5650  40.5660  40.6898  41.3062  41.5561  41.6275
    42.8286  42.8498  42.9166  43.4869  44.7639  45.3892  45.4607  45.5385
    47.0685  48.1923  48.9379  50.0195  51.2339  51.5987  51.8291  52.2382
    52.9274  53.6704  53.9503  54.4467

          k = 0.2000-0.5000 0.1429 (  2658 PWs)   bands (ev):

   -26.4830 -26.4432 -25.9648 -25.9598 -25.5180 -25.4649 -13.9665 -13.9664
    -0.6144  -0.3660   1.5516   1.5601   1.9030   1.9355   2.3126   2.3157
     2.5728   2.6480   2.9087   3.0356   3.3776   3.3978   3.4269   3.4370
     4.5186   4.8473  10.2956  10.3210  10.5535  10.6320  10.6419  10.7019
    31.2908  31.4468  32.2479  32.4500  32.5409  32.5856  32.7324  33.0098
    33.8594  34.0346  34.2278  34.5191  35.4370  35.6162  35.8661  35.9775
    37.0183  37.3607  37.8030  37.9519  38.1399  38.9332  39.3097  39.3185
    39.5482  40.1093  40.2595  40.4634  40.6161  41.0851  41.5252  41.6880
    42.6465  42.7151  43.5744  43.8163  44.9316  45.0510  45.1895  45.4225
    47.0911  47.5686  49.5152  50.0529  50.7240  50.9020  52.2390  52.8324
    53.0402  53.7558  54.0343  54.1844

          k = 0.2000-0.5000 0.2857 (  2648 PWs)   bands (ev):

   -26.4258 -26.3455 -25.9724 -25.9641 -25.6217 -25.5192 -13.9786 -13.9785
    -0.4071   0.0957   1.6531   1.6567   1.9274   1.9822   2.2710   2.2983
     2.6205   2.6486   2.9285   3.0249   3.3007   3.3923   3.4150   3.4481
     3.9050   4.5263  10.3229  10.3654  10.4801  10.5606  10.6150  10.6591
    31.4373  31.6069  32.2016  32.5983  32.7732  32.9713  32.9946  33.6252
    33.8579  33.9896  34.1476  34.3354  35.0945  35.1853  35.6112  35.6574
    37.1302  37.3601  37.9178  38.1924  38.2733  38.4490  39.2061  39.2848
    39.7338  39.9746  40.1002  40.3963  41.2320  41.2705  41.5561  42.3586
    42.9183  42.9475  43.5464  43.9220  44.5284  45.0612  45.2407  45.6378
    46.5638  47.0786  48.7972  49.2223  50.2712  50.5814  51.9863  52.8840
    52.9318  53.3897  54.2945  55.0904

          k = 0.2000-0.5000 0.4286 (  2646 PWs)   bands (ev):

   -26.4117 -26.1524 -25.9837 -25.9725 -25.8230 -25.5209 -13.9885 -13.9884
    -0.4424   1.1436   1.6937   1.7264   2.0050   2.0703   2.1310   2.3829
     2.4473   2.5764   2.6709   3.0418   3.1613   3.1798   3.4300   3.4310
     3.4402   4.5327  10.3037  10.3720  10.3925  10.4732  10.6643  10.6709
    31.4044  31.4385  31.8241  33.0890  33.1351  33.2578  33.6122  33.8240
    33.8385  34.2190  34.4731  34.5085  34.7394  34.8830  35.2370  35.6125
    36.1821  37.8779  38.1217  38.2034  38.2435  38.9858  39.0594  39.3401
    39.3944  39.5797  39.9774  40.4776  40.5465  41.6379  41.6987  42.3769
    42.9054  43.1551  43.7877  44.7797  44.9179  45.1807  45.6053  46.1055
    46.3221  46.9299  47.4748  47.6233  49.5582  51.0992  51.4107  51.4308
    53.0639  53.0693  54.7368  54.9217

          k = 0.4000 0.0000 0.0000 (  2657 PWs)   bands (ev):

   -26.6039 -26.4899 -26.1033 -25.7947 -25.4049 -25.4049 -13.9667 -13.9312
    -0.8746  -0.7587   1.0941   1.3748   1.3748   2.1579   2.4642   2.4642
     2.6068   2.9382   3.1186   3.2125   3.2125   3.2709   3.4417   3.4417
     5.2084   5.2084  10.2239  10.3610  10.6361  10.6361  10.7414  10.7414
    30.7526  31.6228  31.7962  32.0819  32.3915  32.3915  32.7496  32.7496
    33.8133  34.1153  34.4216  34.6436  35.3792  36.1644  36.1644  36.3902
    36.9208  37.1859  37.1859  38.1211  38.5410  38.5866  38.5866  39.5568
    39.9177  40.1679  40.2679  40.4120  40.4120  40.6861  41.2040  42.7460
    42.8182  42.8182  43.1617  43.1617  43.4266  45.5103  45.8074  46.1746
    47.3939  47.3939  50.3746  50.3746  51.0774  51.7769  51.7770  52.0798
    52.9179  53.2642  53.5470  53.5471

          k = 0.4000 0.0000 0.1429 (  2659 PWs)   bands (ev):

   -26.5785 -26.4610 -26.1052 -25.7968 -25.4641 -25.4076 -13.9703 -13.9381
    -0.8517  -0.5627   1.0628   1.4329   1.4935   2.1355   2.3766   2.4712
     2.7095   2.9251   2.9337   3.1956   3.2532   3.3932   3.4123   3.4503
     4.8410   5.2181  10.2469  10.3709  10.5696  10.6650  10.6807  10.7508
    30.8897  31.6314  32.0143  32.1388  32.3364  32.4823  32.6083  32.9768
    33.8261  34.1779  34.4590  34.6512  35.2587  35.6767  36.3166  36.3608
    37.0002  37.1143  37.1590  37.9528  38.2757  38.4811  38.9920  39.5793
    39.5985  39.9861  40.3794  40.4516  40.8041  40.9432  41.7939  42.2450
    42.3527  42.8016  43.3761  43.6073  43.9233  45.3846  45.8030  45.8841
    46.8866  47.5063  49.3802  50.9094  51.1316  51.8580  51.9139  52.5195
    52.5724  53.2879  53.7685  53.8279

          k = 0.4000 0.0000 0.2857 (  2657 PWs)   bands (ev):

   -26.5365 -26.3555 -26.1090 -25.8054 -25.6203 -25.4076 -13.9769 -13.9546
    -0.8852   0.1301   1.0258   1.5806   1.7756   2.0928   2.2243   2.5144
     2.6257   2.8260   2.9324   3.1596   3.2864   3.3900   3.4780   3.5140
     3.8956   5.2168  10.2794  10.3968  10.4317  10.5421  10.7252  10.7710
    31.0477  31.4421  31.8695  31.9584  32.3606  32.8443  33.0895  33.8193
    33.9235  34.2421  34.6546  34.7965  35.2075  35.6181  36.0386  36.2793
    36.7130  37.1565  37.2829  37.6498  38.0354  38.1126  38.4410  38.6604
    39.4826  39.5794  41.0116  41.2714  41.3226  41.5701  42.0295  42.2181
    42.7490  43.0062  43.6299  43.8244  44.5071  45.1770  45.5282  45.7645
    46.2702  47.3157  47.7708  49.9170  50.8463  51.9209  52.0026  52.5099
    53.3324  53.7227  53.7741  54.5132

          k = 0.4000 0.0000 0.4286 (  2657 PWs)   bands (ev):

   -26.5149 -26.2252 -26.0590 -25.8785 -25.7661 -25.4067 -13.9790 -13.9711
    -0.9132   0.9321   1.2529   1.7655   2.0315   2.1193   2.1344   2.3434
     2.4934   2.5514   2.7472   3.1041   3.1883   3.2004   3.4776   3.5040
     3.5570   5.2142  10.2459  10.3490  10.4058  10.4707  10.7759  10.7891
    31.0170  31.1310  31.5395  31.9265  32.8111  33.0802  33.7021  33.9762
    34.0728  34.2725  35.2017  35.3150  35.4742  35.6492  35.7261  36.0119
    36.5303  36.9642  37.0665  37.3858  37.5587  38.0710  38.4256  38.6534
    38.7473  40.1726  41.0308  41.3838  41.5561  41.8021  41.9187  42.3519
    43.0000  43.1658  43.3392  44.2715  44.7862  44.8840  45.0189  46.2088
    46.6149  46.8113  48.2713  48.2969  50.2022  50.8436  52.5313  52.7300
    53.0813  53.4181  53.5962  54.7749

          k = 0.4000 0.1667 0.0000 (  2659 PWs)   bands (ev):

   -26.5709 -26.4493 -26.1061 -25.7977 -25.4844 -25.4079 -13.9714 -13.9404
    -0.8555  -0.4778   1.0555   1.4517   1.5316   2.1296   2.3516   2.4762
     2.7379   2.8849   2.9201   3.1907   3.2748   3.3783   3.4344   3.4543
     4.7147   5.2191  10.2537  10.3748  10.5479  10.6601  10.6739  10.7535
    30.9261  31.6189  32.0116  32.1102  32.4205  32.4825  32.6543  33.0471
    33.8106  34.2516  34.4011  34.6782  35.2291  35.6467  36.2903  36.3577
    36.9459  37.1691  37.1997  37.8026  38.2912  38.4907  38.8717  39.3640
    39.6991  39.9396  40.3948  40.5248  41.0052  41.0722  41.9057  42.1665
    42.2750  42.8205  43.4524  43.6702  44.0328  45.3510  45.7146  45.8924
    46.7274  47.5410  49.0711  51.0665  51.0694  51.7133  51.8890  52.5731
    52.7941  53.2318  53.9378  53.9568

          k = 0.4000 0.1667 0.1429 (  2662 PWs)   bands (ev):

   -26.5360 -26.4291 -26.1107 -25.8011 -25.4850 -25.4652 -13.9753 -13.9472
    -0.6219  -0.4805   1.0286   1.5468   1.5791   2.1205   2.2788   2.5647
     2.7193   2.8998   2.9633   3.0451   3.3707   3.3870   3.4063   3.4322
     4.7165   4.8435  10.2808  10.3830  10.5730  10.6051  10.6687  10.6912
    31.1020  31.7396  32.2110  32.3491  32.4072  32.5409  32.6574  33.0767
    33.7805  33.8694  34.4857  34.6019  35.1399  35.5511  35.7783  36.1259
    36.9481  37.1699  37.5439  38.2868  38.4149  38.6487  38.9782  39.6635
    39.7447  39.8956  40.0277  40.4298  40.6712  41.3154  41.9817  42.1355
    42.3911  42.4850  43.2637  44.2201  44.5872  45.1248  45.1718  45.9396
    46.6399  47.1882  49.5590  49.9783  51.3740  51.5499  52.5048  52.7243
    53.0542  53.4018  53.7390  54.0169

          k = 0.4000 0.1667 0.2857 (  2650 PWs)   bands (ev):

   -26.4751 -26.3385 -26.1159 -25.8046 -25.6211 -25.4858 -13.9829 -13.9633
    -0.5490   0.1100   0.9902   1.6961   1.8201   2.0994   2.1845   2.6128
     2.7046   2.8324   2.9331   3.0859   3.2913   3.4071   3.4129   3.4678
     3.9020   4.7264  10.3242  10.4088  10.4598  10.5506  10.6361  10.6868
    31.3416  31.6657  32.0966  32.4355  32.6670  32.7782  33.0429  33.4830
    33.9144  34.0060  34.4396  34.5602  34.8839  35.2553  35.4400  35.9706
    37.0518  37.1514  37.8863  37.9395  38.4287  38.5145  38.9777  39.1191
    39.4212  39.7778  40.2023  40.9276  41.3241  41.7676  41.9757  42.2655
    42.3892  42.8035  43.4482  44.0729  44.6733  45.1745  45.3205  45.6767
    46.1727  47.1090  48.0837  50.1453  50.2170  51.4428  52.1837  53.0801
    53.1255  53.4969  53.7037  54.7336

          k = 0.4000 0.1667 0.4286 (  2652 PWs)   bands (ev):

   -26.4462 -26.2120 -26.0647 -25.8734 -25.7749 -25.4878 -13.9863 -13.9793
    -0.5784   0.9120   1.2032   1.8393   2.0438   2.0924   2.1533   2.4808
     2.5507   2.6138   2.7913   3.0592   3.1923   3.1994   3.4400   3.4447
     3.4788   4.7290  10.3015  10.3729  10.4107  10.4745  10.6849  10.7004
    31.3186  31.3931  31.8221  32.7041  32.8582  33.2168  33.4720  33.5849
    34.1938  34.2241  34.5226  34.7666  34.8217  35.0154  35.3241  35.8471
    36.4032  37.5911  37.8849  38.2719  38.3393  38.4637  38.7863  38.8093
    39.1756  39.8685  40.1039  40.9725  41.2004  41.8109  42.1095  42.3805
    42.7034  42.9203  43.0810  44.5883  44.8598  45.1456  45.6971  45.7415
    46.5460  46.9047  47.3121  48.5757  50.0299  51.2791  51.5737  52.0665
    53.0566  53.0981  54.3283  55.1822

          k = 0.4000 0.3333 0.0000 (  2652 PWs)   bands (ev):

   -26.5270 -26.3058 -26.1045 -25.8122 -25.6825 -25.4063 -13.9785 -13.9605
    -0.8954   0.4434   1.0244   1.6444   1.8877   2.0815   2.1856   2.5235
     2.5280   2.8036   2.9488   3.1429   3.2501   3.4308   3.4889   3.5276
     3.5345   5.2161  10.2778  10.3762  10.4270  10.4986  10.7468  10.7789
    31.0533  31.3206  31.7836  31.8810  32.5236  32.8902  33.3073  33.8646
    34.0916  34.4252  34.6875  35.0556  35.2733  35.5653  35.8731  36.2504
    36.8278  36.9711  37.1878  37.6156  37.8020  37.8370  38.4750  38.6184
    39.2192  39.7251  41.2338  41.2434  41.4481  41.6852  42.2961  42.3916
    42.5459  43.0709  43.4725  44.1072  44.6306  45.1017  45.3072  46.0727
    46.3183  46.7021  47.9062  49.3402  50.5481  51.6620  52.2433  52.8073
    53.1095  53.5848  54.0746  54.0941

          k = 0.4000 0.3333 0.1429 (  2654 PWs)   bands (ev):

   -26.4787 -26.2945 -26.1103 -25.8116 -25.6857 -25.4667 -13.9833 -13.9671
    -0.6491   0.4264   0.9933   1.7225   1.9145   2.0842   2.1694   2.5739
     2.6257   2.8061   2.9513   3.0992   3.2513   3.4166   3.4253   3.4877
     3.5495   4.8523  10.3155  10.3949  10.4323  10.5034  10.6781  10.7134
    31.2795  31.5006  31.9590  32.4003  32.6125  32.9616  33.1463  33.5712
    34.1160  34.4083  34.4696  34.7018  34.8809  35.1225  35.4050  36.0630
    36.8332  37.2028  37.7031  38.0754  38.3279  38.5157  38.6426  39.0344
    39.0724  39.6751  40.2582  41.2215  41.5520  41.9718  42.1071  42.2507
    42.5519  42.8533  43.0388  44.3147  44.7023  45.2331  45.3536  45.7325
    46.2369  47.2401  47.4491  49.5882  50.3731  51.3792  52.0145  52.8238
    53.1326  53.4538  53.6792  54.9347

          k = 0.4000 0.3333 0.2857 (  2651 PWs)   bands (ev):

   -26.3535 -26.2553 -26.1250 -25.8102 -25.6950 -25.6259 -13.9936 -13.9824
     0.0576   0.3947   0.9320   1.9262   1.9793   2.1063   2.1325   2.6932
     2.7507   2.8201   2.9072   3.0749   3.2609   3.3048   3.3823   3.3900
     3.5619   3.9165  10.3899  10.4277  10.4628  10.5105  10.5274  10.5637
    31.8548  31.9306  32.3303  32.4942  32.7732  32.9610  33.4333  33.6581
    33.9506  34.0859  34.2303  34.3622  34.6497  35.0121  35.2574  35.5435
    37.0352  37.4798  37.7072  37.9073  38.2290  38.4644  38.6072  38.9674
    40.0065  40.2809  40.5771  40.8378  41.5835  41.7925  42.2485  42.5188
    42.8000  42.8655  43.3846  43.9994  44.2733  44.7465  45.0749  46.0393
    46.1746  46.7915  47.9121  48.7280  49.8992  50.6198  51.7935  52.4786
    52.8521  53.3009  54.2275  54.7542

          k = 0.4000 0.3333 0.4286 (  2646 PWs)   bands (ev):

   -26.2640 -26.1707 -26.0839 -25.8641 -25.7966 -25.6982 -14.0003 -13.9963
     0.3635   0.8775   1.1248   2.0102   2.0633   2.0843   2.1865   2.4939
     2.6987   2.8206   2.8875   2.9974   3.1689   3.2263   3.3008   3.3205
     3.3437   3.5679  10.4030  10.4177  10.4357  10.4708  10.5059  10.5194
    32.0513  32.0900  32.4517  32.6288  32.8905  33.0266  33.6412  33.9047
    33.9467  34.0378  34.1746  34.4052  34.6731  34.7504  35.1121  35.5598
    37.1758  37.5292  37.7012  37.8220  38.0111  38.3704  38.5415  38.9851
    39.7469  40.4434  40.4782  40.5624  41.1390  41.8907  42.5271  42.7073
    43.2637  43.5326  43.6726  44.1982  44.4142  44.9306  45.4115  46.0340
    46.2919  46.5697  47.1394  48.2857  48.6207  49.7900  50.4522  51.7380
    52.9165  53.6283  54.0334  55.1853

          k = 0.4000-0.5000 0.0000 (  2650 PWs)   bands (ev):

   -26.5111 -26.2084 -25.9839 -25.9645 -25.7753 -25.4059 -13.9764 -13.9764
    -0.9156   0.9578   1.7189   1.8087   1.8767   2.1309   2.1949   2.2032
     2.2833   2.4755   2.7317   3.0997   3.1868   3.1904   3.4924   3.5073
     3.5620   5.2144  10.2334  10.3495  10.3885  10.4759  10.7833  10.7922
    30.9948  31.0897  31.4814  31.9412  32.9628  33.0720  33.8212  34.0156
    34.1202  34.2004  35.1820  35.2575  35.5049  35.8642  35.9099  35.9150
    36.1946  36.8837  37.2270  37.2295  37.6054  38.1097  38.3264  38.6232
    39.3949  39.7861  40.5040  41.3816  41.6142  42.0885  42.2351  42.2865
    42.8321  43.1836  43.4813  43.8301  44.8331  45.0059  45.0854  46.1101
    46.7418  47.1296  47.9350  48.4270  50.3348  50.3721  52.3804  52.6793
    53.2176  53.3829  53.6059  54.7534

          k = 0.4000-0.5000 0.1429 (  2650 PWs)   bands (ev):

   -26.4602 -26.1996 -25.9831 -25.9662 -25.7815 -25.4666 -13.9822 -13.9822
    -0.6692   0.9366   1.7010   1.7449   1.9512   2.0704   2.1744   2.3169
     2.4169   2.5296   2.7673   3.0675   3.1844   3.1916   3.4545   3.4667
     3.5028   4.8556  10.2753  10.3668  10.3910  10.4778  10.7153  10.7258
    31.2117  31.2914  31.6953  32.5409  32.9844  33.1637  33.6403  33.8935
    34.0334  34.2102  34.6961  34.7667  34.9213  35.1371  35.5146  35.7994
    36.1473  37.6077  38.0529  38.1628  38.2495  38.4531  38.5932  38.7887
    39.4273  39.4937  40.3306  40.6200  41.0779  41.9195  42.0444  42.4966
    42.5745  43.1895  43.3530  44.5179  44.7214  45.0455  45.5108  46.1997
    46.2803  47.4443  47.6353  47.9267  50.0488  50.9520  51.7167  52.2449
    52.9776  53.0258  54.2743  55.0084

          k = 0.4000-0.5000 0.2857 (  2640 PWs)   bands (ev):

   -26.3188 -26.1765 -25.9803 -25.9715 -25.7948 -25.6287 -13.9954 -13.9953
     0.0390   0.8935   1.6757   1.6887   2.0444   2.0672   2.2083   2.3793
     2.6192   2.7060   2.8751   2.9975   3.1827   3.2103   3.3352   3.3663
     3.3690   3.9231  10.3632  10.4023  10.4148  10.4775  10.5609  10.5733
    31.7993  31.8330  32.2400  32.8958  32.9377  33.3658  33.6293  33.7772
    33.8700  34.1715  34.3032  34.4923  34.5114  34.6198  35.0565  35.5241
    36.8407  37.6005  37.8695  37.9604  38.1261  38.5985  39.3725  39.4093
    39.5183  39.5856  40.4736  40.5026  40.8383  41.7204  42.2765  42.3632
    42.9842  43.2407  43.8204  44.6302  44.9074  45.2944  45.3215  45.8429
    46.2700  46.3689  47.7705  47.7857  49.0805  49.7575  50.7736  52.4006
    52.7832  53.2215  54.0985  55.6601

          k = 0.4000-0.5000 0.4286 (  2640 PWs)   bands (ev):

   -26.1531 -26.1118 -25.9803 -25.9795 -25.8523 -25.8078 -14.0060 -14.0059
     0.8593   1.0907   1.6601   1.6632   2.0753   2.0819   2.1421   2.2652
     2.7593   2.8063   2.9150   2.9570   3.1131   3.1496   3.2214   3.2226
     3.2626   3.2651  10.4128  10.4160  10.4370  10.4569  10.4604  10.4690
    32.3674  32.3774  32.6505  32.7081  32.9199  33.0201  33.6087  33.6132
    33.8462  33.8616  34.4447  34.5293  34.6958  34.7318  35.2677  35.3206
    37.2910  37.2939  37.5742  37.8978  38.3889  38.4595  39.0585  39.1466
    39.4661  39.5246  39.9413  40.0291  40.8796  41.3449  43.3329  43.3732
    43.8121  43.9901  44.5073  44.6477  45.1156  45.4061  45.6796  45.8494
    46.1283  46.1666  47.1017  47.3539  47.8544  48.1004  49.5028  50.1038
    53.7483  53.8391  54.8128  55.4111

     the Fermi energy is    45.2315 ev

!    total energy              =   -1505.68724184 Ry
     Harris-Foulkes estimate   =   -1505.68725197 Ry
     estimated scf accuracy    <       0.00001097 Ry

     The total energy is the sum of the following terms:

     one-electron contribution =     214.28749429 Ry
     hartree contribution      =      98.65617226 Ry
     xc contribution           =    -161.76435036 Ry
     ewald contribution        =   -1656.57517851 Ry
     smearing contrib. (-TS)   =      -0.29137953 Ry

     convergence has been achieved in   9 iterations

     Forces acting on atoms (Ry/au):

     atom    1 type  1   force =     0.00000000    0.00000000    0.00000000
     atom    2 type  1   force =     0.00000000    0.00000000    0.00000000
     atom    3 type  1   force =     0.00000000    0.00000000    0.00000000
     atom    4 type  1   force =     0.00000000    0.00000000    0.00000000
     atom    5 type  1   force =     0.00000000    0.00000000    0.00000000
     atom    6 type  1   force =     0.00000000    0.00000000    0.00000000
     atom    7 type  2   force =     0.00000000    0.00000000    0.00000000
     atom    8 type  2   force =     0.00000000    0.00000000    0.00000000

     Total force =     0.000000     Total SCF correction =     0.000000


     entering subroutine stress ...

          total   stress  (Ry/bohr**3)                   (kbar)     P= 4902.64
   0.03332748   0.00000000   0.00000000       4902.64      0.00      0.00
   0.00000000   0.03332748   0.00000000          0.00   4902.64      0.00
   0.00000000   0.00000000   0.03332748          0.00      0.00   4902.64


     BFGS Geometry Optimization

     number of scf cycles    =   1
     number of bfgs steps    =   0

     enthalpy new            =   -1505.6872418447 Ry

     new trust radius        =       0.5000000000 bohr
     new conv_thr            =       0.0001000000 Ry

     new unit-cell volume =    828.02266 a.u.^3 (   122.70030 Ang^3 )

CELL_PARAMETERS (alat=  8.53457320)
   1.100269143   0.000000000   0.000000000
   0.000000000   1.100269143   0.000000000
   0.000000000   0.000000000   1.100269143

ATOMIC_POSITIONS (crystal)
Cr       0.000000000   0.500000000   0.250000000
Cr       0.000000000   0.500000000   0.750000000
Cr       0.500000000   0.750000000   0.000000000
Cr       0.500000000   0.250000000   0.000000000
Cr       0.750000000   0.000000000   0.500000000
Cr       0.250000000   0.000000000   0.500000000
Si       0.500000000   0.500000000   0.500000000
Si       0.000000000   0.000000000   0.000000000



     Writing output data file Prototype-La-cP8-Cr3Si.save
     NEW-OLD atomic charge density approx. for the potential
     NEW k-points:
        k(    1) = (   0.0000000   0.0000000   0.0000000), wk =   0.0095238
        k(    2) = (   0.0000000   0.0000000   0.1298384), wk =   0.0190476
        k(    3) = (   0.0000000   0.0000000   0.2596767), wk =   0.0190476
        k(    4) = (   0.0000000   0.0000000   0.3895151), wk =   0.0190476
        k(    5) = (   0.0000000   0.1514781   0.0000000), wk =   0.0190476
        k(    6) = (   0.0000000   0.1514781   0.1298384), wk =   0.0380952
        k(    7) = (   0.0000000   0.1514781   0.2596767), wk =   0.0380952
        k(    8) = (   0.0000000   0.1514781   0.3895151), wk =   0.0380952
        k(    9) = (   0.0000000   0.3029562   0.0000000), wk =   0.0190476
        k(   10) = (   0.0000000   0.3029562   0.1298384), wk =   0.0380952
        k(   11) = (   0.0000000   0.3029562   0.2596767), wk =   0.0380952
        k(   12) = (   0.0000000   0.3029562   0.3895151), wk =   0.0380952
        k(   13) = (   0.0000000  -0.4544343   0.0000000), wk =   0.0095238
        k(   14) = (   0.0000000  -0.4544343   0.1298384), wk =   0.0190476
        k(   15) = (   0.0000000  -0.4544343   0.2596767), wk =   0.0190476
        k(   16) = (   0.0000000  -0.4544343   0.3895151), wk =   0.0190476
        k(   17) = (   0.1817737   0.0000000   0.0000000), wk =   0.0190476
        k(   18) = (   0.1817737   0.0000000   0.1298384), wk =   0.0380952
        k(   19) = (   0.1817737   0.0000000   0.2596767), wk =   0.0380952
        k(   20) = (   0.1817737   0.0000000   0.3895151), wk =   0.0380952
        k(   21) = (   0.1817737   0.1514781   0.0000000), wk =   0.0380952
        k(   22) = (   0.1817737   0.1514781   0.1298384), wk =   0.0761905
        k(   23) = (   0.1817737   0.1514781   0.2596767), wk =   0.0761905
        k(   24) = (   0.1817737   0.1514781   0.3895151), wk =   0.0761905
        k(   25) = (   0.1817737   0.3029562   0.0000000), wk =   0.0380952
        k(   26) = (   0.1817737   0.3029562   0.1298384), wk =   0.0761905
        k(   27) = (   0.1817737   0.3029562   0.2596767), wk =   0.0761905
        k(   28) = (   0.1817737   0.3029562   0.3895151), wk =   0.0761905
        k(   29) = (   0.1817737  -0.4544343   0.0000000), wk =   0.0190476
        k(   30) = (   0.1817737  -0.4544343   0.1298384), wk =   0.0380952
        k(   31) = (   0.1817737  -0.4544343   0.2596767), wk =   0.0380952
        k(   32) = (   0.1817737  -0.4544343   0.3895151), wk =   0.0380952
        k(   33) = (   0.3635474   0.0000000   0.0000000), wk =   0.0190476
        k(   34) = (   0.3635474   0.0000000   0.1298384), wk =   0.0380952
        k(   35) = (   0.3635474   0.0000000   0.2596767), wk =   0.0380952
        k(   36) = (   0.3635474   0.0000000   0.3895151), wk =   0.0380952
        k(   37) = (   0.3635474   0.1514781   0.0000000), wk =   0.0380952
        k(   38) = (   0.3635474   0.1514781   0.1298384), wk =   0.0761905
        k(   39) = (   0.3635474   0.1514781   0.2596767), wk =   0.0761905
        k(   40) = (   0.3635474   0.1514781   0.3895151), wk =   0.0761905
        k(   41) = (   0.3635474   0.3029562   0.0000000), wk =   0.0380952
        k(   42) = (   0.3635474   0.3029562   0.1298384), wk =   0.0761905
        k(   43) = (   0.3635474   0.3029562   0.2596767), wk =   0.0761905
        k(   44) = (   0.3635474   0.3029562   0.3895151), wk =   0.0761905
        k(   45) = (   0.3635474  -0.4544343   0.0000000), wk =   0.0190476
        k(   46) = (   0.3635474  -0.4544343   0.1298384), wk =   0.0380952
        k(   47) = (   0.3635474  -0.4544343   0.2596767), wk =   0.0380952
        k(   48) = (   0.3635474  -0.4544343   0.3895151), wk =   0.0380952

     total cpu time spent up to now is      211.5 secs

     Self-consistent Calculation

     iteration #  1     ecut=    40.00 Ry     beta=0.70
     CG style diagonalization
     c_bands:  1 eigenvalues not converged
     c_bands:  1 eigenvalues not converged
     c_bands:  1 eigenvalues not converged
     c_bands:  5 eigenvalues not converged
     c_bands:  1 eigenvalues not converged
     c_bands:  2 eigenvalues not converged
     c_bands:  4 eigenvalues not converged
     c_bands:  2 eigenvalues not converged
     c_bands:  1 eigenvalues not converged
     c_bands:  3 eigenvalues not converged
     c_bands:  2 eigenvalues not converged
     ethr =  1.00E-06,  avg # of iterations = 22.0

     total cpu time spent up to now is      293.8 secs

     total energy              =   -1498.63142197 Ry
     Harris-Foulkes estimate   =   -1521.16904086 Ry
     estimated scf accuracy    <      29.24700504 Ry

     iteration #  2     ecut=    40.00 Ry     beta=0.70
     CG style diagonalization
     ethr =  1.00E-02,  avg # of iterations =  4.0

     total cpu time spent up to now is      308.9 secs

     total energy              =   -1504.27951395 Ry
     Harris-Foulkes estimate   =   -1512.81940072 Ry
     estimated scf accuracy    <      13.95964834 Ry

     iteration #  3     ecut=    40.00 Ry     beta=0.70
     CG style diagonalization
     ethr =  9.97E-03,  avg # of iterations =  3.5

     total cpu time spent up to now is      322.0 secs

     total energy              =   -1507.85702126 Ry
     Harris-Foulkes estimate   =   -1510.83957933 Ry
     estimated scf accuracy    <       7.43957056 Ry

     iteration #  4     ecut=    40.00 Ry     beta=0.70
     CG style diagonalization
     ethr =  5.31E-03,  avg # of iterations =  3.2

     total cpu time spent up to now is      334.2 secs

     total energy              =   -1508.95720652 Ry
     Harris-Foulkes estimate   =   -1508.98878169 Ry
     estimated scf accuracy    <       0.07167946 Ry

     iteration #  5     ecut=    40.00 Ry     beta=0.70
     CG style diagonalization
     c_bands:  1 eigenvalues not converged
     c_bands:  1 eigenvalues not converged
     c_bands:  1 eigenvalues not converged
     ethr =  5.12E-05,  avg # of iterations =  4.6

     total cpu time spent up to now is      352.6 secs

     total energy              =   -1509.01341024 Ry
     Harris-Foulkes estimate   =   -1509.03346886 Ry
     estimated scf accuracy    <       0.05565586 Ry

     iteration #  6     ecut=    40.00 Ry     beta=0.70
     CG style diagonalization
     ethr =  3.98E-05,  avg # of iterations =  3.1

     total cpu time spent up to now is      364.6 secs

     total energy              =   -1509.02144966 Ry
     Harris-Foulkes estimate   =   -1509.02159251 Ry
     estimated scf accuracy    <       0.00025385 Ry

     iteration #  7     ecut=    40.00 Ry     beta=0.70
     CG style diagonalization
     c_bands:  1 eigenvalues not converged
     c_bands:  1 eigenvalues not converged
     c_bands:  1 eigenvalues not converged
     c_bands:  1 eigenvalues not converged
     c_bands:  1 eigenvalues not converged
     c_bands:  1 eigenvalues not converged
     c_bands:  2 eigenvalues not converged
     ethr =  1.81E-07,  avg # of iterations =  4.6

     total cpu time spent up to now is      382.2 secs

     total energy              =   -1509.02177719 Ry
     Harris-Foulkes estimate   =   -1509.02189022 Ry
     estimated scf accuracy    <       0.00036853 Ry

     iteration #  8     ecut=    40.00 Ry     beta=0.70
     CG style diagonalization
     c_bands:  1 eigenvalues not converged
     c_bands:  1 eigenvalues not converged
     c_bands:  1 eigenvalues not converged
     ethr =  1.81E-07,  avg # of iterations =  3.2

     total cpu time spent up to now is      393.6 secs

     End of self-consistent calculation

          k = 0.0000 0.0000 0.0000 (  2601 PWs)   bands (ev):

   -37.0042 -36.9806 -36.9806 -36.5331 -36.5331 -36.5331 -25.5618 -25.5315
    -9.5778  -9.5778  -9.3508  -8.2834  -8.2834  -8.2834  -7.6600  -7.6600
    -7.6600  -7.5904  -7.5904  -7.5904  -7.4262  -7.4262  -7.4262  -6.6938
    -6.6938  -6.6938  -0.7808  -0.7808  -0.7808  -0.7440  -0.7440  -0.7440
    22.3419  22.3419  22.7460  23.0461  23.0461  23.0461  23.0626  24.7002
    24.9421  24.9421  24.9421  25.0181  25.2690  25.2690  25.2690  25.5328
    25.5328  27.3474  27.3474  28.2232  28.2232  28.2232  28.6766  28.6766
    28.6766  28.7486  28.7486  28.7486  29.3322  29.3322  29.3322  30.2111
    30.2111  30.9600  30.9600  31.5722  31.5722  31.5722  33.0986  33.0986
    33.0986  35.6994  35.6994  35.6994  39.0661  39.0662  39.4381  39.9517
    41.2131  41.3962  41.3962  41.3962

          k = 0.0000 0.0000 0.1298 (  2657 PWs)   bands (ev):

   -37.0096 -36.9904 -36.9586 -36.6098 -36.5842 -36.5842 -25.5628 -25.5551
    -9.6097  -9.5593  -9.3310  -8.2801  -8.2801  -8.2412  -7.7301  -7.7301
    -7.6564  -7.6233  -7.5778  -7.5778  -7.4811  -7.4811  -7.4733  -6.8523
    -6.7085  -6.7085  -0.8153  -0.7961  -0.7961  -0.7603  -0.7437  -0.7437
    22.3014  22.5608  22.9153  22.9602  23.1466  23.1466  23.2300  24.6348
    24.6348  24.7155  24.7641  24.9368  25.2299  25.5116  25.5116  25.5739
    25.6880  27.4509  27.5863  27.5920  27.5920  28.2636  28.3447  28.6534
    28.6785  28.6785  29.0426  29.0426  29.2500  29.5958  29.5958  30.0063
    30.1940  30.8924  31.6095  31.7747  31.8540  31.8540  32.5912  32.5912
    33.0609  34.3112  36.0263  36.0263  38.6414  39.0502  40.0396  40.3693
    40.5158  41.3716  41.3720  41.5405

          k = 0.0000 0.0000 0.2597 (  2677 PWs)   bands (ev):

   -37.0244 -36.9998 -36.9197 -36.6660 -36.5934 -36.5934 -25.5675 -25.5621
    -9.6041  -9.5310  -9.0388  -8.2629  -8.2629  -8.1286  -7.7885  -7.7885
    -7.7344  -7.6029  -7.5406  -7.5406  -7.5144  -7.5144  -7.5019  -7.3193
    -6.7169  -6.7169  -0.8452  -0.8096  -0.7847  -0.7847  -0.7414  -0.7414
    22.2080  22.7187  22.8881  23.3880  23.3880  23.6206  23.7647  24.1228
    24.2563  24.2563  24.7592  24.9229  25.1224  25.7161  25.7161  25.9138
    26.1339  27.2510  27.2510  27.4661  27.4921  28.1098  28.3067  28.3067
    28.5981  28.6737  28.8933  28.8933  29.1147  29.6414  30.0540  30.2313
    30.2313  30.8614  31.6508  31.6508  31.9723  32.1533  32.6387  32.8574
    32.8574  32.9507  36.4064  36.4065  37.6163  38.5343  39.4424  40.6448
    41.0016  41.0405  41.0406  41.7052

          k = 0.0000 0.0000 0.3895 (  2658 PWs)   bands (ev):

   -37.0116 -36.9851 -36.8328 -36.7429 -36.5861 -36.5861 -25.5644 -25.5604
    -9.5859  -9.5551  -8.5122  -8.2491  -8.2491  -7.9545  -7.9039  -7.8135
    -7.8024  -7.8024  -7.5672  -7.5500  -7.5500  -7.5295  -7.4771  -7.4771
    -6.7097  -6.7097  -0.8561  -0.8357  -0.7726  -0.7726  -0.7396  -0.7396
    22.2958  22.5900  23.0194  23.2589  23.6137  23.6137  23.9838  23.9838
    24.2441  24.7435  24.8234  24.8841  25.3599  25.9605  25.9605  26.2661
    26.5736  26.6785  26.9153  26.9153  27.6053  28.0325  28.0325  28.4668
    28.4682  28.9332  28.9332  29.0433  29.0717  29.4320  29.6784  29.7289
    30.5984  30.5984  30.8990  30.8990  31.6189  32.5014  32.7058  32.7667
    33.9413  33.9413  36.5002  36.5003  37.1529  37.7692  39.4800  39.9760
    39.9760  40.1533  41.6925  41.6926

          k = 0.0000 0.1515 0.0000 (  2653 PWs)   bands (ev):

   -37.0056 -36.9842 -36.9506 -36.6173 -36.5847 -36.5847 -25.5627 -25.5544
    -9.6089  -9.5463  -9.3041  -8.2736  -8.2736  -8.2165  -7.7405  -7.7405
    -7.6622  -7.6205  -7.5667  -7.5667  -7.4854  -7.4854  -7.4768  -6.9021
    -6.7060  -6.7060  -0.8174  -0.7931  -0.7931  -0.7650  -0.7428  -0.7428
    22.2859  22.6075  22.8943  23.0522  23.1805  23.1805  23.2984  24.5688
    24.5688  24.6278  24.7209  24.9356  25.2493  25.5551  25.5551  25.6125
    25.7383  27.4834  27.5026  27.5026  27.6368  28.1681  28.3874  28.6315
    28.6530  28.6530  29.0052  29.0052  29.2263  29.7180  29.7180  29.9472
    30.1829  30.8727  31.7914  31.8342  31.9731  31.9731  32.4444  32.4444
    33.0476  33.9434  36.1080  36.1080  38.4971  38.9884  40.0987  40.1963
    40.7706  41.3853  41.3854  41.5588

          k = 0.0000 0.1515 0.1298 (  2662 PWs)   bands (ev):

   -37.0226 -36.9690 -36.9502 -36.6159 -36.6102 -36.5875 -25.5634 -25.5596
    -9.5897  -9.4758  -9.2875  -8.2603  -8.2352  -8.2178  -7.7799  -7.7734
    -7.6471  -7.6189  -7.5781  -7.5390  -7.5211  -7.4998  -7.4552  -6.9220
    -6.8661  -6.7069  -0.8156  -0.8074  -0.7882  -0.7657  -0.7581  -0.7395
    22.4036  22.7200  23.0150  23.0406  23.2289  23.2887  23.4383  24.2722
    24.4435  24.6764  24.6884  24.8157  25.3003  25.6017  25.6782  25.7098
    25.8477  26.8696  27.2962  27.6022  27.8170  28.0880  28.2999  28.4744
    28.7381  28.8547  29.0253  29.2109  29.3961  29.5135  29.6067  30.1429
    30.1712  31.1852  31.6152  31.9548  32.0011  32.1870  32.2556  32.3265
    32.8616  34.0076  35.0072  36.3974  38.4533  39.2629  40.0671  40.1882
    40.5249  40.7089  41.6584  41.7801

          k = 0.0000 0.1515 0.2597 (  2666 PWs)   bands (ev):

   -37.0162 -36.9714 -36.9058 -36.6684 -36.6192 -36.5901 -25.5666 -25.5614
    -9.5861  -9.3975  -9.0451  -8.2329  -8.2084  -8.1237  -7.8248  -7.8149
    -7.6765  -7.6315  -7.5617  -7.5351  -7.5232  -7.5060  -7.4592  -7.2973
    -6.9243  -6.7077  -0.8378  -0.7996  -0.7981  -0.7719  -0.7642  -0.7414
    22.3872  22.8121  23.1558  23.2403  23.5446  23.7208  23.8645  24.0378
    24.1214  24.2941  24.6998  24.9414  25.1253  25.6083  25.8857  26.1125
    26.1304  26.6401  26.9548  27.4314  27.8330  27.9780  28.1514  28.3570
    28.5200  28.7296  28.8452  29.2670  29.3232  29.5953  29.9652  30.2175
    30.4776  30.9247  31.4466  31.5913  32.0827  32.2240  32.6162  32.7093
    32.9144  33.0460  34.9062  36.8147  37.6745  38.1728  39.2698  40.3095
    40.7664  40.9619  41.0117  42.0141

          k = 0.0000 0.1515 0.3895 (  2658 PWs)   bands (ev):

   -36.9924 -36.9755 -36.8315 -36.7407 -36.6134 -36.5958 -25.5641 -25.5632
    -9.5888  -9.4030  -8.5203  -8.2104  -8.1935  -7.9691  -7.9049  -7.8421
    -7.8372  -7.7287  -7.6652  -7.5670  -7.5269  -7.5045  -7.4795  -7.4738
    -6.9237  -6.6979  -0.8521  -0.8290  -0.7889  -0.7613  -0.7585  -0.7371
    22.4536  22.7264  23.2509  23.3644  23.4168  23.6762  23.8548  24.0106
    24.4612  24.7735  24.7933  25.0363  25.3007  25.7450  26.0379  26.2934
    26.3120  26.7508  26.7906  27.1924  27.5347  27.5560  27.8532  28.4684
    28.5337  28.6455  29.0238  29.2067  29.2482  29.6145  29.6504  30.0769
    30.3755  30.6368  30.9878  31.1121  31.8731  32.4509  32.6159  32.7394
    33.5357  33.9990  35.2581  36.5852  36.9788  37.3697  38.8471  39.8359
    40.3663  41.2042  41.6102  42.2743

          k = 0.0000 0.3030 0.0000 (  2677 PWs)   bands (ev):

   -37.0261 -37.0031 -36.8887 -36.7070 -36.5858 -36.5858 -25.5670 -25.5635
    -9.6002  -9.5318  -8.8995  -8.2601  -8.2601  -8.0752  -7.7989  -7.7989
    -7.7747  -7.5917  -7.5476  -7.5476  -7.5046  -7.5029  -7.5029  -7.4744
    -6.7246  -6.7246  -0.8544  -0.8173  -0.7809  -0.7809  -0.7432  -0.7432
    22.2062  22.7099  22.9217  23.4736  23.4736  23.5972  23.8452  24.1490
    24.1490  24.4540  24.7794  24.9132  25.0126  25.7800  25.7800  26.0344
    26.3571  27.1758  27.1758  27.2934  27.3694  28.1534  28.1534  28.2135
    28.6008  28.8092  28.8986  28.8986  29.0861  29.5363  29.9646  30.3824
    30.3824  30.9796  31.1927  31.3552  31.3552  32.2763  32.8299  32.8980
    33.2684  33.2684  36.4627  36.4627  37.3238  38.3013  39.3471  40.6489
    40.6489  40.7000  41.0079  41.6885

          k = 0.0000 0.3030 0.1298 (  2660 PWs)   bands (ev):

   -37.0043 -36.9719 -36.8833 -36.6899 -36.6124 -36.5919 -25.5658 -25.5604
    -9.5876  -9.4437  -8.8879  -8.2300  -8.2143  -8.0649  -7.8246  -7.8234
    -7.7028  -7.6300  -7.5615  -7.5388  -7.5232  -7.4920  -7.4692  -7.4593
    -6.8654  -6.7004  -0.8467  -0.8077  -0.7885  -0.7682  -0.7602  -0.7397
    22.3460  22.8056  23.1574  23.2831  23.5823  23.5921  23.9714  23.9793
    24.2380  24.4797  24.7433  24.9392  25.0313  25.6401  25.9877  26.1057
    26.2394  26.7462  26.9684  27.3125  27.6936  27.9589  27.9671  28.4740
    28.5164  28.7696  28.8563  29.1838  29.2014  29.5870  30.1020  30.1874
    30.4853  30.6537  31.3793  31.3863  31.6722  32.2980  32.7186  32.8203
    33.0837  33.3675  35.2725  36.7954  37.3756  37.9722  39.1680  40.3460
    40.4846  41.0033  41.1856  42.0934

          k = 0.0000 0.3030 0.2597 (  2658 PWs)   bands (ev):

   -36.9865 -36.9353 -36.8756 -36.6919 -36.6652 -36.5996 -25.5649 -25.5641
    -9.5939  -9.0976  -8.8921  -8.1786  -8.1137  -8.0730  -7.8797  -7.8336
    -7.7185  -7.6488  -7.5870  -7.5602  -7.5077  -7.4820  -7.4645  -7.4497
    -7.2781  -6.7005  -0.8411  -0.8178  -0.8046  -0.7843  -0.7550  -0.7381
    22.5486  22.8706  23.0054  23.4996  23.6660  23.8360  24.0193  24.2133
    24.4475  24.5590  24.7593  24.9710  25.2583  25.3293  26.1599  26.3342
    26.3490  26.5922  26.8096  26.9275  27.5526  27.5664  27.7492  27.9721
    28.2293  28.4515  29.3912  29.5116  29.6142  29.7562  30.0949  30.3398
    30.3607  30.8600  31.2313  31.4020  32.0149  32.3400  32.7416  32.7509
    32.8549  33.6483  33.7244  36.3572  37.2246  37.4555  38.4520  39.8613
    40.5506  41.4811  41.9907  42.2031

          k = 0.0000 0.3030 0.3895 (  2654 PWs)   bands (ev):

   -36.9840 -36.9017 -36.8346 -36.7416 -36.6873 -36.5933 -25.5652 -25.5643
    -9.6004  -8.9252  -8.5332  -8.1320  -8.0928  -7.9969  -7.9003  -7.8954
    -7.8344  -7.8029  -7.6704  -7.5869  -7.5475  -7.4776  -7.4639  -7.4501
    -7.4484  -6.7097  -0.8478  -0.8224  -0.8131  -0.7924  -0.7468  -0.7370
    22.6497  22.7925  22.9686  23.2318  23.6581  23.8930  24.3622  24.6042
    24.6607  24.8774  24.8958  25.2235  25.5127  25.5557  25.9901  26.3132
    26.3210  26.7524  26.8896  26.9973  27.0095  27.3223  27.4070  27.4983
    27.8870  28.5289  29.0543  29.6571  29.6851  29.9664  30.0207  30.2996
    30.3729  30.7377  31.0755  31.6617  31.9603  32.3102  32.5237  33.0367
    33.1634  33.5556  34.1579  34.9812  36.7083  37.7954  37.9070  39.1629
    41.1261  41.9175  42.0978  42.3684

          k = 0.0000-0.4544 0.0000 (  2666 PWs)   bands (ev):

   -37.0039 -37.0039 -36.7913 -36.7913 -36.5877 -36.5877 -25.5637 -25.5637
    -9.5770  -9.5770  -8.2476  -8.2476  -8.2127  -8.2127  -7.8922  -7.8922
    -7.8067  -7.8067  -7.5605  -7.5605  -7.5498  -7.5498  -7.4720  -7.4720
    -6.7104  -6.7104  -0.8533  -0.8533  -0.7738  -0.7738  -0.7413  -0.7413
    22.4335  22.4335  23.1149  23.1149  23.6577  23.6577  23.9335  23.9335
    24.5059  24.5059  24.8558  24.8558  26.0501  26.0501  26.0505  26.0505
    26.4460  26.4460  26.7864  26.7864  28.0289  28.0289  28.1542  28.1542
    28.8428  28.8428  28.9478  28.9478  29.0856  29.0856  29.5378  29.5378
    30.6838  30.6838  30.7448  30.7448  32.2166  32.2166  32.6449  32.6449
    34.1273  34.1273  36.5029  36.5029  37.3863  37.3863  39.7703  39.7703
    39.7869  39.7869  41.6870  41.6871

          k = 0.0000-0.4544 0.1298 (  2666 PWs)   bands (ev):

   -36.9993 -36.9879 -36.7932 -36.7901 -36.6080 -36.5915 -25.5650 -25.5650
    -9.5827  -9.4503  -8.2653  -8.2182  -8.2166  -8.1595  -7.9260  -7.8809
    -7.8347  -7.7636  -7.6541  -7.5695  -7.5326  -7.4997  -7.4845  -7.4763
    -6.8729  -6.7059  -0.8521  -0.8443  -0.7838  -0.7627  -0.7532  -0.7371
    22.5176  22.5881  23.1963  23.3098  23.4596  23.7256  23.8113  23.9833
    24.5975  24.6006  24.8112  24.9989  25.6796  25.9646  26.0315  26.1194
    26.3388  26.6972  26.7337  26.9328  27.5817  27.8527  28.2401  28.3481
    28.6216  28.6456  28.7672  28.9396  29.2160  29.4221  29.7456  29.8258
    30.5703  30.6648  30.7305  30.9917  32.2119  32.4203  32.5415  32.5765
    33.7802  34.1568  35.7453  36.4613  36.8714  37.3280  38.9449  39.7110
    40.2425  40.9808  41.9948  41.7184

          k = 0.0000-0.4544 0.2597 (  2658 PWs)   bands (ev):

   -36.9829 -36.9257 -36.7915 -36.7898 -36.6630 -36.5994 -25.5652 -25.5651
    -9.6016  -9.0861  -8.2791  -8.2181  -8.1525  -8.0588  -7.9562  -7.8903
    -7.8513  -7.7776  -7.6791  -7.5863  -7.5295  -7.4852  -7.4737  -7.4665
    -7.2818  -6.7104  -0.8489  -0.8250  -0.8132  -0.7794  -0.7520  -0.7381
    22.6828  22.6903  23.0880  23.3130  23.4961  23.9015  24.2397  24.2783
    24.6756  24.7635  24.8782  25.4080  25.5242  25.6960  25.8861  26.0956
    26.5271  26.7023  26.9570  26.9752  26.9976  27.3791  27.7783  27.9965
    28.0846  28.1293  28.6086  29.5569  29.8911  29.9177  30.1106  30.1318
    30.2972  30.6540  31.1811  31.3033  31.9371  32.3578  32.6578  32.8440
    33.1964  34.2317  34.2536  35.0291  36.8807  37.6818  37.9566  39.2882
    41.1008  41.8208  41.9503  42.2603

          k = 0.0000-0.4544 0.3895 (  2662 PWs)   bands (ev):

   -36.9924 -36.8577 -36.7958 -36.7953 -36.7336 -36.5908 -25.5673 -25.5672
    -9.6014  -8.5664  -8.2871  -8.2284  -8.0611  -8.0232  -7.9719  -7.9205
    -7.9004  -7.8783  -7.8520  -7.6132  -7.5927  -7.5846  -7.4557  -7.4517
    -7.4465  -6.7182  -0.8588  -0.8337  -0.8129  -0.8073  -0.7374  -0.7364
    22.7033  22.7258  22.8758  23.0333  23.9744  24.0250  24.4435  24.7514
    24.8622  25.0244  25.2394  25.3258  25.6047  25.9771  25.9917  26.3401
    26.4083  26.6192  26.6503  26.8297  26.8990  27.1750  27.2199  27.3672
    27.8272  27.9460  28.7759  29.0809  29.9749  30.1079  30.2920  30.4375
    30.6470  30.7874  31.1756  31.6414  31.9295  32.2401  32.4455  32.7798
    33.4588  33.8176  34.0856  34.3830  36.0217  37.3336  38.3690  38.6085
    41.7575  41.7986  41.8029  42.1542

          k = 0.1818 0.0000 0.0000 (  2661 PWs)   bands (ev):

   -37.0224 -36.9863 -36.9429 -36.6292 -36.5853 -36.5853 -25.5625 -25.5593
    -9.6074  -9.5337  -9.2512  -8.2704  -8.2704  -8.1922  -7.7595  -7.7595
    -7.6882  -7.6159  -7.5565  -7.5565  -7.4915  -7.4915  -7.4822  -7.0037
    -6.7133  -6.7133  -0.8272  -0.7919  -0.7919  -0.7727  -0.7416  -0.7416
    22.2609  22.6582  22.8760  23.2052  23.2338  23.2338  23.4199  24.4309
    24.4770  24.4770  24.7299  24.9332  25.2448  25.6077  25.6077  25.6877
    25.8235  27.4027  27.4027  27.5219  27.6757  28.0651  28.4564  28.5914
    28.5914  28.6054  28.9517  28.9517  29.1923  29.8608  29.8816  29.8816
    30.1600  30.8460  31.9220  32.0508  32.1724  32.1724  32.2323  32.2323
    33.0255  33.4067  36.2124  36.2124  38.2636  38.8819  39.9158  40.2064
    41.1761  41.3835  41.3836  41.4762

          k = 0.1818 0.0000 0.1298 (  2667 PWs)   bands (ev):

   -37.0225 -36.9739 -36.9427 -36.6282 -36.6098 -36.5933 -25.5662 -25.5594
[...]
    24.7432  25.1668  26.2156  26.5833  27.7407  27.9060  29.1250  29.8825
    30.8913  31.7863  32.0338  33.0162

          k = 0.1679-0.4198 0.1199 (  4478 PWs)   bands (ev):

   -44.2628 -44.2560 -44.1902 -44.1900 -44.1271 -44.1199 -33.3927 -33.3927
   -16.0017 -15.9370 -15.3798 -15.3768 -15.2573 -15.2505 -15.1747 -15.1648
   -15.1079 -15.0958 -15.0573 -15.0406 -14.9993 -14.9918 -14.9847 -14.9776
   -14.7791 -14.7109  -8.5384  -8.5368  -8.5235  -8.5206  -8.5168  -8.5147
    16.9775  17.0616  17.4784  17.5426  17.6854  17.8936  17.9285  17.9985
    18.1739  18.2170  18.7732  18.8413  19.0219  19.0934  19.3192  19.3948
    19.8425  19.8493  19.9611  20.0679  20.5480  20.6880  20.8457  20.8889
    21.3250  21.3259  21.4300  21.6336  21.7921  21.9264  22.3219  22.4105
    22.6249  22.6449  22.9547  23.1258  23.9536  24.0257  24.0343  24.1378
    24.7539  24.9235  26.4632  26.5676  27.0292  27.1704  29.4333  29.6942
    31.1392  31.4295  32.3133  32.6167

          k = 0.1679-0.4198 0.2399 (  4472 PWs)   bands (ev):

   -44.2553 -44.2411 -44.1907 -44.1902 -44.1416 -44.1265 -33.3929 -33.3929
   -15.9384 -15.8146 -15.3847 -15.3805 -15.2318 -15.2277 -15.1826 -15.1652
   -15.1042 -15.1033 -15.0564 -15.0469 -15.0109 -14.9939 -14.9848 -14.9772
   -14.9132 -14.7785  -8.5377  -8.5348  -8.5262  -8.5219  -8.5197  -8.5168
    17.2581  17.2716  17.5932  17.6188  17.8932  17.9398  17.9862  18.0474
    18.2643  18.3067  18.7175  18.7445  18.9684  19.0035  19.1172  19.3457
    19.8203  19.9611  19.9689  20.0770  20.1961  20.4132  20.7375  20.8905
    21.2064  21.3882  21.5345  21.6112  21.9982  22.0397  22.3542  22.6234
    22.6522  22.7358  22.8441  23.3208  23.8287  24.0335  24.0674  24.2256
    24.5936  24.7404  25.9190  25.9358  26.5397  27.0300  28.9206  28.9515
    31.5037  31.5491  32.5612  32.9488

          k = 0.1679-0.4198 0.3598 (  4502 PWs)   bands (ev):

   -44.2560 -44.2122 -44.1929 -44.1923 -44.1744 -44.1293 -33.3934 -33.3934
   -15.9455 -15.5460 -15.3924 -15.3836 -15.2460 -15.2117 -15.2115 -15.1738
   -15.1450 -15.1221 -15.1169 -15.0572 -15.0437 -15.0367 -14.9901 -14.9877
   -14.9862 -14.7822  -8.5410  -8.5348  -8.5323  -8.5278  -8.5191  -8.5187
    17.3335  17.3543  17.4689  17.5387  18.0385  18.0783  18.2073  18.3980
    18.4248  18.7503  18.7942  18.8701  18.8879  18.9027  18.9424  19.4408
    19.5582  19.7597  20.0236  20.0455  20.1411  20.2067  20.5470  20.8841
    21.0645  21.2418  21.4194  21.4594  21.5071  22.3201  22.3495  22.5858
    22.8037  22.9300  22.9721  23.7911  23.9787  24.0723  24.1139  24.3795
    24.5362  24.6524  25.1735  25.1876  26.4018  27.5467  27.8839  28.2693
    31.5521  32.3769  32.6244  33.4352

          k = 0.3359 0.0000 0.0000 (  4492 PWs)   bands (ev):

   -44.2772 -44.2678 -44.2141 -44.1663 -44.1119 -44.1119 -33.3926 -33.3924
   -16.0757 -16.0522 -15.5831 -15.2954 -15.2954 -15.1996 -15.1548 -15.1181
   -15.1086 -15.1085 -15.0256 -15.0132 -15.0132 -14.9980 -14.9839 -14.9838
   -14.6411 -14.6411  -8.5400  -8.5335  -8.5217  -8.5217  -8.5131  -8.5131
    16.5820  16.7417  17.2223  17.4208  17.6995  17.7661  17.7661  18.1552
    18.1552  18.3791  18.5896  18.7613  18.7805  19.2446  19.2446  19.6031
    19.8434  19.8535  20.2684  20.2685  20.4247  20.9922  20.9922  21.0827
    21.1470  21.5482  21.5482  21.6613  21.6620  21.9632  22.2020  22.2538
    22.6192  22.6192  23.0154  23.0154  23.4296  23.9774  24.2045  24.3143
    24.9358  24.9358  27.3130  27.3130  27.8259  28.1968  29.7928  30.1324
    30.4684  30.4684  32.6930  32.8002

          k = 0.3359 0.0000 0.1199 (  4484 PWs)   bands (ev):

   -44.2732 -44.2622 -44.2135 -44.1661 -44.1199 -44.1120 -33.3928 -33.3923
   -16.0658 -15.9954 -15.5863 -15.2824 -15.2795 -15.2011 -15.1576 -15.1266
   -15.1181 -15.0867 -15.0504 -15.0194 -15.0032 -14.9946 -14.9841 -14.9796
   -14.7143 -14.6375  -8.5393  -8.5347  -8.5234  -8.5191  -8.5157  -8.5124
    16.6727  16.8960  17.3160  17.4791  17.6169  17.7670  17.8398  18.0258
    18.1601  18.4685  18.5956  18.7127  18.8630  19.1644  19.4764  19.4868
    19.6639  19.8641  20.1818  20.3491  20.3915  20.7761  20.8051  21.2012
    21.3272  21.4314  21.4623  21.7531  21.7567  22.0455  22.0960  22.3827
    22.5189  22.6571  23.0640  23.0803  23.5859  23.9908  24.1490  24.3131
    24.7585  24.9662  26.3444  27.5539  27.5836  27.9773  29.4602  30.2872
    30.5439  31.2555  32.1372  32.8540

          k = 0.3359 0.0000 0.2399 (  4482 PWs)   bands (ev):

   -44.2710 -44.2423 -44.2128 -44.1670 -44.1424 -44.1122 -33.3928 -33.3927
   -16.0678 -15.8145 -15.5918 -15.2573 -15.2477 -15.2090 -15.1559 -15.1361
   -15.1305 -15.0923 -15.0700 -15.0319 -15.0154 -14.9826 -14.9779 -14.9682
   -14.9146 -14.6346  -8.5409  -8.5343  -8.5294  -8.5210  -8.5148  -8.5118
    16.7947  17.1243  17.3569  17.6552  17.6554  17.8324  17.9175  18.1922
    18.2188  18.4715  18.6444  18.7541  19.0215  19.1288  19.3751  19.6367
    19.7385  19.9222  20.0345  20.0621  20.3492  20.4275  20.5143  20.8632
    20.9719  21.2097  21.6455  21.9724  22.0023  22.1784  22.1885  22.4295
    22.5535  22.7710  23.0656  23.2373  23.8149  23.9702  24.1812  24.3255
    24.5883  25.0560  25.0828  26.4597  27.6248  28.1904  28.8143  29.7940
    31.2800  32.0825  32.4632  32.8574

          k = 0.3359 0.0000 0.3598 (  4483 PWs)   bands (ev):

   -44.2683 -44.2202 -44.2043 -44.1754 -44.1668 -44.1141 -33.3931 -33.3928
   -16.0733 -15.6051 -15.5341 -15.2426 -15.2287 -15.2153 -15.1882 -15.1477
   -15.1462 -15.1293 -15.1276 -15.0507 -15.0389 -15.0369 -14.9769 -14.9744
   -14.9689 -14.6303  -8.5441  -8.5352  -8.5319  -8.5248  -8.5123  -8.5112
    16.8857  17.1654  17.2039  17.4628  17.8541  17.8867  18.2949  18.4960
    18.5893  18.6712  18.7703  18.8638  18.9072  19.3726  19.4473  19.5220
    19.7383  19.8249  20.0530  20.0737  20.1284  20.1615  20.3191  20.4179
    20.5278  21.2193  21.4398  21.5537  22.1309  22.1777  22.3725  22.6366
    22.7725  22.7839  22.8610  23.7439  23.8572  23.9261  23.9560  24.4107
    24.6386  24.9086  25.2294  25.5216  27.1491  28.3605  28.7345  29.2754
    31.6656  32.0187  32.5840  33.2448

          k = 0.3359 0.1399 0.0000 (  4486 PWs)   bands (ev):

   -44.2729 -44.2603 -44.2141 -44.1659 -44.1229 -44.1117 -33.3928 -33.3924
   -16.0669 -15.9733 -15.5870 -15.2793 -15.2762 -15.2044 -15.1583 -15.1278
   -15.1227 -15.0834 -15.0570 -15.0205 -14.9985 -14.9975 -14.9839 -14.9767
   -14.7392 -14.6377  -8.5393  -8.5348  -8.5242  -8.5188  -8.5167  -8.5126
    16.6938  16.9447  17.3627  17.5009  17.5767  17.7888  17.8430  18.0103
    18.1599  18.4795  18.5995  18.7101  18.8967  19.1528  19.4332  19.5436
    19.6427  19.8744  20.1551  20.3515  20.3756  20.7166  20.7451  21.2015
    21.2642  21.3919  21.5129  21.7827  21.8177  22.0664  22.0756  22.4196
    22.5090  22.6743  23.0670  23.0955  23.6272  23.9957  24.1446  24.3040
    24.7107  24.9770  26.1171  27.3962  27.6711  27.9285  29.3611  30.2221
    30.6845  31.4393  32.0841  32.8688

          k = 0.3359 0.1399 0.1199 (  4474 PWs)   bands (ev):

   -44.2667 -44.2571 -44.2136 -44.1652 -44.1227 -44.1187 -33.3927 -33.3924
   -16.0022 -15.9717 -15.5882 -15.2668 -15.2666 -15.1982 -15.1631 -15.1398
   -15.0996 -15.0924 -15.0484 -15.0323 -14.9983 -14.9932 -14.9845 -14.9776
   -14.7359 -14.7117  -8.5377  -8.5341  -8.5226  -8.5210  -8.5167  -8.5141
    16.8728  17.0663  17.4013  17.5366  17.6768  17.7521  17.8594  18.0146
    18.1474  18.3714  18.5888  18.6507  18.9554  19.1799  19.3016  19.5454
    19.6120  19.7365  20.1875  20.2151  20.3949  20.8226  20.9279  21.2242
    21.3062  21.5139  21.5265  21.6111  21.7590  21.8844  22.1904  22.4823
    22.5983  22.6141  22.9167  23.2847  23.7981  23.9793  24.0247  24.2973
    24.7134  24.7934  26.2665  26.5879  27.4845  27.6717  29.6969  29.8046
    30.9263  31.3311  32.2042  32.5828

          k = 0.3359 0.1399 0.2399 (  4482 PWs)   bands (ev):

   -44.2608 -44.2422 -44.2136 -44.1668 -44.1422 -44.1230 -33.3930 -33.3928
   -15.9788 -15.8143 -15.5936 -15.2470 -15.2414 -15.2023 -15.1734 -15.1438
   -15.1035 -15.0917 -15.0624 -15.0366 -15.0146 -14.9938 -14.9851 -14.9764
   -14.9134 -14.7372  -8.5383  -8.5340  -8.5271  -8.5225  -8.5191  -8.5161
    17.0998  17.2881  17.5044  17.5941  17.8343  17.8675  17.9901  18.0404
    18.2175  18.3466  18.6017  18.6950  18.9430  19.0173  19.1268  19.4930
    19.6793  19.8297  19.9713  20.1733  20.3339  20.5868  20.7162  21.0356
    21.3236  21.4097  21.5780  21.6255  21.9480  22.1173  22.3404  22.4552
    22.5797  22.7577  22.8444  23.3547  23.8572  24.0553  24.1248  24.2042
    24.5851  24.7528  25.3060  26.5291  26.5987  27.7122  28.9034  29.3525
    31.5043  31.5614  32.1228  33.0868

          k = 0.3359 0.1399 0.3598 (  4494 PWs)   bands (ev):

   -44.2599 -44.2198 -44.2075 -44.1751 -44.1671 -44.1243 -33.3933 -33.3931
   -15.9819 -15.6056 -15.5361 -15.2472 -15.2247 -15.2153 -15.1968 -15.1582
   -15.1434 -15.1163 -15.1087 -15.0563 -15.0394 -15.0355 -14.9857 -14.9836
   -14.9796 -14.7372  -8.5414  -8.5348  -8.5314  -8.5265  -8.5170  -8.5165
    17.2203  17.3176  17.3584  17.5339  17.9530  17.9944  18.2085  18.3151
    18.4718  18.6871  18.7482  18.8275  18.8668  18.9669  19.0048  19.5525
    19.6755  19.7341  19.8223  20.0861  20.1312  20.3415  20.7239  20.8110
    21.1486  21.2836  21.4686  21.5028  21.5687  22.2984  22.4429  22.6410
    22.6903  22.7386  22.7949  23.8000  23.9001  24.0188  24.1369  24.3939
    24.6283  24.7396  24.9002  25.6248  26.5845  27.8588  28.2531  28.6401
    31.6585  32.1354  32.2872  33.4514

          k = 0.3359 0.2799 0.0000 (  4479 PWs)   bands (ev):

   -44.2699 -44.2335 -44.2119 -44.1672 -44.1522 -44.1124 -33.3928 -33.3928
   -16.0680 -15.7324 -15.5930 -15.2477 -15.2372 -15.2108 -15.1536 -15.1415
   -15.1292 -15.1056 -15.0692 -15.0370 -15.0246 -14.9962 -14.9779 -14.9762
   -14.9643 -14.6332  -8.5420  -8.5344  -8.5304  -8.5229  -8.5132  -8.5113
    16.8304  17.1617  17.2819  17.5739  17.7365  17.8476  18.1861  18.3033
    18.3160  18.4547  18.6527  18.7898  18.9492  19.2427  19.4016  19.6846
    19.7387  19.8508  19.9436  20.0829  20.3170  20.3203  20.3943  20.6868
    20.8005  21.2795  21.6084  21.9532  22.0567  22.1341  22.2286  22.4340
    22.5925  22.7984  22.9934  23.4580  23.8686  23.9515  24.1176  24.4533
    24.5635  24.8256  25.1056  26.0998  27.4640  28.4008  28.6231  29.6012
    31.4264  32.1270  32.7778  32.8473

          k = 0.3359 0.2799 0.1199 (  4492 PWs)   bands (ev):

   -44.2635 -44.2340 -44.2136 -44.1674 -44.1529 -44.1209 -33.3931 -33.3930
   -16.0028 -15.7354 -15.5947 -15.2410 -15.2350 -15.2078 -15.1708 -15.1433
   -15.1100 -15.1026 -15.0681 -15.0407 -15.0250 -15.0010 -14.9862 -14.9847
   -14.9753 -14.7108  -8.5402  -8.5340  -8.5305  -8.5246  -8.5175  -8.5152
    17.0743  17.2753  17.3924  17.5774  17.8471  17.9266  18.1119  18.1744
    18.3279  18.4100  18.6331  18.7771  18.8987  19.0421  19.0964  19.5747
    19.7124  19.7709  19.9390  20.1584  20.1804  20.5559  20.6923  20.8638
    21.1392  21.3516  21.5910  21.6050  21.9867  22.2133  22.3693  22.4088
    22.6148  22.6947  22.8409  23.5484  23.8499  24.0523  24.1873  24.2690
    24.6073  24.8217  24.9613  26.2022  26.7487  27.9346  28.7844  29.0795
    31.7219  31.7780  32.0826  33.2331

          k = 0.3359 0.2799 0.2399 (  4492 PWs)   bands (ev):

   -44.2429 -44.2325 -44.2155 -44.1673 -44.1525 -44.1428 -33.3933 -33.3933
   -15.8180 -15.7330 -15.5985 -15.2278 -15.2217 -15.1991 -15.1866 -15.1425
   -15.1009 -15.0861 -15.0718 -15.0424 -15.0198 -15.0119 -14.9967 -14.9922
   -14.9909 -14.9150  -8.5354  -8.5330  -8.5279  -8.5262  -8.5243  -8.5224
    17.4785  17.5929  17.6662  17.7881  17.8683  17.9600  18.1341  18.2111
    18.3144  18.4182  18.5383  18.7171  18.7368  18.8454  18.9582  19.2639
    19.4634  19.7767  19.9397  20.1406  20.2141  20.3580  20.6891  20.9525
    21.4561  21.5160  21.7325  21.7891  21.9018  22.1446  22.3767  22.5964
    22.6732  22.7872  22.9081  23.2622  23.7809  23.9642  24.1651  24.3762
    24.4893  24.6662  25.1421  25.6686  26.4789  26.9753  27.6974  28.6429
    31.5731  31.8865  32.4039  33.4034

          k = 0.3359 0.2799 0.3598 (  4492 PWs)   bands (ev):

   -44.2327 -44.2176 -44.2083 -44.1751 -44.1679 -44.1523 -33.3936 -33.3934
   -15.7344 -15.6056 -15.5433 -15.2448 -15.2199 -15.2120 -15.1996 -15.1520
   -15.1251 -15.1012 -15.0845 -15.0657 -15.0388 -15.0277 -15.0138 -15.0045
   -15.0031 -14.9931  -8.5347  -8.5325  -8.5293  -8.5280  -8.5260  -8.5245
    17.6240  17.6467  17.7442  17.8946  17.9949  18.0112  18.3345  18.3450
    18.4992  18.5579  18.6343  18.6962  18.7400  18.8448  18.8703  19.1963
    19.3976  19.7382  19.7448  19.8876  19.9621  20.4106  20.7839  20.8933
    21.1907  21.3605  21.5352  21.6429  21.8347  22.1297  22.5705  22.6227
    22.9244  23.0045  23.1558  23.3540  23.8372  24.1746  24.2616  24.4539
    24.4565  24.6044  24.9229  25.5326  25.8846  26.5535  26.9454  27.6756
    31.9439  32.4214  32.8186  33.5299

          k = 0.3359-0.4198 0.0000 (  4484 PWs)   bands (ev):

   -44.2692 -44.2186 -44.1917 -44.1901 -44.1668 -44.1134 -33.3930 -33.3930
   -16.0712 -15.6038 -15.3903 -15.3751 -15.2221 -15.2105 -15.2071 -15.1498
   -15.1473 -15.1321 -15.1320 -15.0523 -15.0462 -15.0363 -14.9746 -14.9726
   -14.9672 -14.6298  -8.5449  -8.5359  -8.5328  -8.5257  -8.5114  -8.5106
    16.9021  17.1359  17.2100  17.4366  17.8669  17.9294  18.2715  18.5517
    18.6109  18.6953  18.8648  18.8876  19.1253  19.1667  19.4963  19.5849
    19.7647  19.8681  19.8760  19.9890  20.1393  20.1907  20.3384  20.4621
    20.6360  20.6881  21.4635  21.5125  22.2018  22.2237  22.4750  22.6049
    22.7118  22.8591  22.8728  23.6463  23.8724  23.9202  24.0228  24.3431
    24.6789  25.0647  25.2754  25.3119  27.0481  28.2973  28.8341  29.1756
    31.8162  31.8773  32.5225  33.2806

          k = 0.3359-0.4198 0.1199 (  4488 PWs)   bands (ev):

   -44.2618 -44.2185 -44.1919 -44.1908 -44.1669 -44.1215 -33.3932 -33.3931
   -16.0059 -15.6031 -15.3909 -15.3797 -15.2209 -15.2096 -15.2093 -15.1531
   -15.1506 -15.1213 -15.1208 -15.0525 -15.0436 -15.0330 -14.9819 -14.9813
   -14.9717 -14.7079  -8.5420  -8.5347  -8.5324  -8.5267  -8.5154  -8.5146
    17.1678  17.2362  17.3196  17.4974  17.9531  17.9927  18.2367  18.4206
    18.4865  18.7091  18.7949  18.9123  18.9571  19.0003  19.0928  19.5533
    19.6136  19.6955  19.9938  20.1337  20.1607  20.2925  20.5104  20.7804
    20.8818  21.0540  21.4684  21.4694  21.6588  22.3628  22.4534  22.6749
    22.6902  22.7523  22.8680  23.8247  23.8579  23.9997  24.0868  24.4026
    24.5960  24.8668  25.1729  25.2961  26.6962  27.9394  28.5002  28.5131
    31.7740  32.0984  32.3664  33.2995

          k = 0.3359-0.4198 0.2399 (  4500 PWs)   bands (ev):

   -44.2428 -44.2177 -44.1928 -44.1922 -44.1686 -44.1427 -33.3935 -33.3935
   -15.8176 -15.6061 -15.3939 -15.3895 -15.2161 -15.2155 -15.2032 -15.1495
   -15.1397 -15.1018 -15.0980 -15.0633 -15.0417 -15.0324 -15.0070 -14.9983
   -14.9949 -14.9162  -8.5377  -8.5345  -8.5301  -8.5277  -8.5235  -8.5229
    17.5058  17.5489  17.6662  17.9017  17.9706  18.1522  18.1686  18.3121
    18.3938  18.6502  18.6721  18.7188  18.8018  18.8200  18.8658  19.2628
    19.6402  19.7308  19.8352  19.9907  20.0711  20.1924  20.6654  21.0112
    21.0971  21.2557  21.5537  21.5944  21.7737  22.2675  22.4564  22.5156
    22.8663  23.0414  23.0689  23.6338  23.7431  24.1354  24.1559  24.4565
    24.4826  24.4851  25.2625  25.4121  25.9691  26.6503  27.4009  27.8718
    31.6908  32.3466  32.9526  33.5340

          k = 0.3359-0.4198 0.3598 (  4510 PWs)   bands (ev):

   -44.2182 -44.2117 -44.1932 -44.1930 -44.1752 -44.1684 -33.3937 -33.3937
   -15.6059 -15.5462 -15.3951 -15.3942 -15.2480 -15.2201 -15.2190 -15.1971
   -15.1149 -15.1020 -15.0877 -15.0776 -15.0626 -15.0516 -15.0305 -15.0288
   -15.0185 -15.0183  -8.5337  -8.5331  -8.5304  -8.5302  -8.5287  -8.5286
    17.7570  17.7597  17.8622  17.9107  18.0172  18.0205  18.4589  18.4708
    18.5214  18.5393  18.6909  18.6945  18.8660  18.9029  18.9819  19.1518
    19.4318  19.4558  19.6937  19.7796  20.1606  20.1839  20.7305  20.8877
    21.0256  21.0566  21.4152  21.4285  21.6919  21.7805  22.9603  22.9713
    23.1427  23.2121  23.4114  23.4290  24.2031  24.2704  24.3590  24.4184
    24.4301  24.5590  25.1642  25.3448  25.4736  25.7188  26.4335  26.6342
    32.6430  32.8605  33.4210  33.6435

     the Fermi energy is    24.0741 ev

!    total energy              =   -1511.28439852 Ry
     Harris-Foulkes estimate   =   -1511.28439898 Ry
     estimated scf accuracy    <       0.00000055 Ry

     The total energy is the sum of the following terms:

     one-electron contribution =    -150.70570955 Ry
     hartree contribution      =     184.05948132 Ry
     xc contribution           =    -153.20844965 Ry
     ewald contribution        =   -1390.92827775 Ry
     smearing contrib. (-TS)   =      -0.50144288 Ry

     convergence has been achieved in  14 iterations

     Forces acting on atoms (Ry/au):

     atom    1 type  1   force =     0.00000000    0.00000000    0.00000000
     atom    2 type  1   force =     0.00000000    0.00000000    0.00000000
     atom    3 type  1   force =     0.00000000    0.00000000    0.00000000
     atom    4 type  1   force =     0.00000000    0.00000000    0.00000000
     atom    5 type  1   force =     0.00000000    0.00000000    0.00000000
     atom    6 type  1   force =     0.00000000    0.00000000    0.00000000
     atom    7 type  2   force =     0.00000000    0.00000000    0.00000000
     atom    8 type  2   force =     0.00000000    0.00000000    0.00000000

     Total force =     0.000000     Total SCF correction =     0.000000


     entering subroutine stress ...

          total   stress  (Ry/bohr**3)                   (kbar)     P=  -40.43
  -0.00027486   0.00000000   0.00000000        -40.43      0.00      0.00
   0.00000000  -0.00027486   0.00000000          0.00    -40.43      0.00
   0.00000000   0.00000000  -0.00027486          0.00      0.00    -40.43


     Writing output data file Prototype-La-cP8-Cr3Si.save
 
     init_run     :      7.19s CPU      9.27s WALL (       2 calls)
     electrons    :   1465.37s CPU   1676.07s WALL (       5 calls)
     update_pot   :      1.37s CPU      1.40s WALL (       3 calls)
     forces       :      5.65s CPU      6.20s WALL (       5 calls)
     stress       :     14.77s CPU     15.28s WALL (       5 calls)

     Called by init_run:
     wfcinit      :      6.67s CPU      8.72s WALL (       2 calls)
     potinit      :      0.20s CPU      0.20s WALL (       2 calls)

     Called by electrons:
     c_bands      :   1412.91s CPU   1597.15s WALL (      50 calls)
     sum_band     :     52.04s CPU     59.28s WALL (      50 calls)
     v_of_rho     :      0.07s CPU      0.08s WALL (      55 calls)
     mix_rho      :      0.08s CPU      0.09s WALL (      50 calls)

     Called by c_bands:
     init_us_2    :      3.14s CPU      3.87s WALL (    5376 calls)
     ccgdiagg     :   1258.23s CPU   1396.42s WALL (    2718 calls)
     wfcrot       :    157.80s CPU    202.62s WALL (    2766 calls)

     Called by *cgdiagg:
     h_psi        :    993.53s CPU   1153.54s WALL ( 1022072 calls)
     cdiaghg      :      7.93s CPU      8.47s WALL (    2766 calls)

     Called by h_psi:
     add_vuspsi   :    126.95s CPU    140.06s WALL ( 1022072 calls)

     General routines
     calbec       :    334.29s CPU    343.61s WALL ( 2041858 calls)
     fft          :      0.09s CPU      0.10s WALL (     243 calls)
     fftw         :    645.54s CPU    747.61s WALL ( 2704900 calls)
     davcio       :      2.68s CPU      6.10s WALL (    7776 calls)
 
     Parallel routines
     fft_scatter  :    275.26s CPU    316.98s WALL ( 2705143 calls)
 
     PWSCF        : 24m55.06s CPU    28m31.18s WALL

 
   This run was terminated on:  23:17:30  22Mar2018            

=------------------------------------------------------------------------------=
   JOB DONE.
=------------------------------------------------------------------------------=
