
     Program PWSCF v.5.0.2 starts on 22Mar2018 at 22:42:45 

     This program is part of the open-source Quantum ESPRESSO suite
     for quantum simulation of materials; please cite
         "P. Giannozzi et al., J. Phys.:Condens. Matter 21 395502 (2009);
          URL http://www.quantum-espresso.org", 
     in publications or presentations arising from this work. More details at
     http://www.quantum-espresso.org/quote.php

     Parallel version (MPI), running on     4 processors
     R & G space division:  proc/nbgrp/npool/nimage =       4

     Current dimensions of program PWSCF are:
     Max number of different atomic species (ntypx) = 10
     Max number of k-points (npk) =  40000
     Max angular momentum in pseudopotentials (lmaxx) =  3
     Waiting for input...
     Reading input from standard input

     Subspace diagonalization in iterative solution of the eigenvalue problem:
     a serial algorithm will be used

 
     Parallelization info
     --------------------
     sticks:   dense  smooth     PW     G-vecs:    dense   smooth      PW
     Min         164     164     48                 3132     3132     524
     Max         165     165     49                 3135     3135     527
     Sum         657     657    193                12533    12533    2103
 


     bravais-lattice index     =            0
     lattice parameter (alat)  =       7.1317  a.u.
     unit-cell volume          =     362.7211 (a.u.)^3
     number of atoms/cell      =            4
     number of atomic types    =            2
     number of electrons       =        83.00
     number of Kohn-Sham states=           50
     kinetic-energy cutoff     =      40.0000  Ry
     charge density cutoff     =     160.0000  Ry
     convergence threshold     =      1.0E-04
     mixing beta               =       0.7000
     number of iterations used =            8  plain     mixing
     Exchange-correlation      = SLA-PZ-NOGX-NOGC ( 1 1 0 0 0)
     EXX-fraction              =        0.00
     nstep                     =           50


     celldm(1)=   7.131665  celldm(2)=   0.000000  celldm(3)=   0.000000
     celldm(4)=   0.000000  celldm(5)=   0.000000  celldm(6)=   0.000000

     crystal axes: (cart. coord. in units of alat)
               a(1) = (   1.000000   0.000000   0.000000 )  
               a(2) = (   0.000000   1.000000   0.000000 )  
               a(3) = (   0.000000   0.000000   1.000000 )  

     reciprocal axes: (cart. coord. in units 2 pi/alat)
               b(1) = (  1.000000  0.000000  0.000000 )  
               b(2) = (  0.000000  1.000000  0.000000 )  
               b(3) = (  0.000000  0.000000  1.000000 )  


     PseudoPot. # 1 for Er read from file:
     /home/cwx6513/pp.La/Er.UPF
     MD5 check sum: e152ae21b84514339d8526f066caf99b
     Pseudo is Norm-conserving, Zval = 22.0
     Generated in analytical, separable form
     Using radial grid of 1267 points,  6 beta functions with: 
                l(1) =   0
                l(2) =   0
                l(3) =   1
                l(4) =   1
                l(5) =   2
                l(6) =   3

     PseudoPot. # 2 for Eu read from file:
     /home/cwx6513/pp.La/Eu.UPF
     MD5 check sum: 5efdbbfc50c6a10138933a6429836ad2
     Pseudo is Norm-conserving, Zval = 17.0
     Generated in analytical, separable form
     Using radial grid of 1261 points,  6 beta functions with: 
                l(1) =   0
                l(2) =   0
                l(3) =   1
                l(4) =   1
                l(5) =   2
                l(6) =   3

     atomic species   valence    mass     pseudopotential
        Cu            22.00    63.54600     Er( 1.00)
        Au            17.00   196.96600     Eu( 1.00)

     48 Sym. Ops., with inversion, found



   Cartesian axes

     site n.     atom                  positions (alat units)
         1           Cu  tau(   1) = (   0.0000000   0.5000000   0.5000000  )
         2           Cu  tau(   2) = (   0.5000000   0.5000000   0.0000000  )
         3           Cu  tau(   3) = (   0.5000000   0.0000000   0.5000000  )
         4           Au  tau(   4) = (   0.0000000   0.0000000   0.0000000  )

     number of k points=   100  gaussian smearing, width (Ry)=  0.1000

     Number of k-points >= 100: set verbosity='high' to print them.

     Dense  grid:    12533 G-vectors     FFT dimensions: (  30,  30,  30)

     Largest allocated arrays     est. size (Mb)     dimensions
        Kohn-Sham Wavefunctions         0.31 Mb     (    400,   50)
        NL pseudopotentials             0.49 Mb     (    400,   80)
        Each V/rho on FFT grid          0.11 Mb     (   7200)
        Each G-vector array             0.02 Mb     (   3134)
        G-vector shells                 0.02 Mb     (   3134)
     Largest temporary arrays     est. size (Mb)     dimensions
        Each subspace H/S matrix        0.04 Mb     (  50,  50)
        Each <psi_i|beta_j> matrix      0.06 Mb     (     80,   50)
        Arrays for rho mixing           0.88 Mb     (   7200,   8)

     Initial potential from superposition of free atoms

     Starting from uniform charge
     Starting wfc are    0 randomized atomic wfcs

     total cpu time spent up to now is        2.0 secs

     Self-consistent Calculation

     iteration #  1     ecut=    40.00 Ry     beta=0.70
     CG style diagonalization
     c_bands:  1 eigenvalues not converged
     c_bands:  1 eigenvalues not converged
     c_bands:  1 eigenvalues not converged
     c_bands:  1 eigenvalues not converged
     c_bands:  1 eigenvalues not converged
     c_bands:  1 eigenvalues not converged
     c_bands:  1 eigenvalues not converged
     c_bands:  1 eigenvalues not converged
     c_bands:  1 eigenvalues not converged
     c_bands:  1 eigenvalues not converged
     c_bands:  1 eigenvalues not converged
     c_bands:  1 eigenvalues not converged
     c_bands:  1 eigenvalues not converged
     c_bands:  1 eigenvalues not converged
     c_bands:  1 eigenvalues not converged
     c_bands:  1 eigenvalues not converged
     ethr =  1.00E-02,  avg # of iterations = 12.8

     total cpu time spent up to now is       27.6 secs

     total energy              =    -976.91735282 Ry
     Harris-Foulkes estimate   =   -1378.76157019 Ry
     estimated scf accuracy    <     505.39395029 Ry

     iteration #  2     ecut=    40.00 Ry     beta=0.70
     CG style diagonalization
     c_bands:  1 eigenvalues not converged
     c_bands:  3 eigenvalues not converged
     c_bands:  1 eigenvalues not converged
     c_bands:  1 eigenvalues not converged
     c_bands:  1 eigenvalues not converged
     c_bands:  1 eigenvalues not converged
     c_bands:  1 eigenvalues not converged
     c_bands:  1 eigenvalues not converged
     ethr =  1.00E-02,  avg # of iterations = 11.4

     total cpu time spent up to now is       50.0 secs

     total energy              =   -1020.54929083 Ry
     Harris-Foulkes estimate   =   -1251.47980476 Ry
     estimated scf accuracy    <     399.61978108 Ry

     iteration #  3     ecut=    40.00 Ry     beta=0.70
     CG style diagonalization
     c_bands:  1 eigenvalues not converged
     c_bands:  1 eigenvalues not converged
     c_bands:  1 eigenvalues not converged
     c_bands:  1 eigenvalues not converged
     c_bands:  1 eigenvalues not converged
     c_bands:  1 eigenvalues not converged
     c_bands:  1 eigenvalues not converged
     c_bands:  1 eigenvalues not converged
     c_bands:  1 eigenvalues not converged
     ethr =  1.00E-02,  avg # of iterations =  9.5

     total cpu time spent up to now is       69.4 secs

     total energy              =   -1147.94976771 Ry
     Harris-Foulkes estimate   =   -1190.24326809 Ry
     estimated scf accuracy    <      97.57677341 Ry

     iteration #  4     ecut=    40.00 Ry     beta=0.70
     CG style diagonalization
     ethr =  1.00E-02,  avg # of iterations =  4.9

     total cpu time spent up to now is       78.4 secs

     total energy              =   -1160.10273942 Ry
     Harris-Foulkes estimate   =   -1161.55641144 Ry
     estimated scf accuracy    <       4.06051682 Ry

     iteration #  5     ecut=    40.00 Ry     beta=0.70
     CG style diagonalization
     ethr =  4.89E-03,  avg # of iterations =  3.3

     total cpu time spent up to now is       84.9 secs

     total energy              =   -1159.84751846 Ry
     Harris-Foulkes estimate   =   -1160.49292398 Ry
     estimated scf accuracy    <       1.04130252 Ry

     iteration #  6     ecut=    40.00 Ry     beta=0.70
     CG style diagonalization
     ethr =  1.25E-03,  avg # of iterations =  4.1

     total cpu time spent up to now is       93.5 secs

     total energy              =   -1160.20947620 Ry
     Harris-Foulkes estimate   =   -1160.30752885 Ry
     estimated scf accuracy    <       0.23020344 Ry

     iteration #  7     ecut=    40.00 Ry     beta=0.70
     CG style diagonalization
     c_bands:  1 eigenvalues not converged
     c_bands:  1 eigenvalues not converged
     ethr =  2.77E-04,  avg # of iterations =  3.6

     total cpu time spent up to now is      100.4 secs

     total energy              =   -1160.23350120 Ry
     Harris-Foulkes estimate   =   -1160.24435430 Ry
     estimated scf accuracy    <       0.01734503 Ry

     iteration #  8     ecut=    40.00 Ry     beta=0.70
     CG style diagonalization
     c_bands:  1 eigenvalues not converged
     c_bands:  1 eigenvalues not converged
     c_bands:  1 eigenvalues not converged
     c_bands:  1 eigenvalues not converged
     c_bands:  1 eigenvalues not converged
     c_bands:  1 eigenvalues not converged
     c_bands:  1 eigenvalues not converged
     c_bands:  1 eigenvalues not converged
     c_bands:  1 eigenvalues not converged
     ethr =  2.09E-05,  avg # of iterations =  4.4

     total cpu time spent up to now is      110.6 secs

     total energy              =   -1160.24065345 Ry
     Harris-Foulkes estimate   =   -1160.24250971 Ry
     estimated scf accuracy    <       0.00374173 Ry

     iteration #  9     ecut=    40.00 Ry     beta=0.70
     CG style diagonalization
     c_bands:  1 eigenvalues not converged
     c_bands:  1 eigenvalues not converged
     c_bands:  1 eigenvalues not converged
     ethr =  4.51E-06,  avg # of iterations =  3.8

     total cpu time spent up to now is      119.9 secs

     End of self-consistent calculation

     Number of k-points >= 100: set verbosity='high' to print the bands.

     the Fermi energy is    44.4102 ev

!    total energy              =   -1160.24156576 Ry
     Harris-Foulkes estimate   =   -1160.24157077 Ry
     estimated scf accuracy    <       0.00000659 Ry

     The total energy is the sum of the following terms:

     one-electron contribution =     -75.59135281 Ry
     hartree contribution      =     133.75640909 Ry
     xc contribution           =    -105.16583266 Ry
     ewald contribution        =   -1113.14200986 Ry
     smearing contrib. (-TS)   =      -0.09877952 Ry

     convergence has been achieved in   9 iterations

     Forces acting on atoms (Ry/au):

     atom    1 type  1   force =     0.00000000    0.00000000    0.00000000
     atom    2 type  1   force =     0.00000000    0.00000000    0.00000000
     atom    3 type  1   force =     0.00000000    0.00000000    0.00000000
     atom    4 type  2   force =     0.00000000    0.00000000    0.00000000

     Total force =     0.000000     Total SCF correction =     0.000000


     entering subroutine stress ...

          total   stress  (Ry/bohr**3)                   (kbar)     P= 2889.13
   0.01963989   0.00000000   0.00000000       2889.13      0.00      0.00
   0.00000000   0.01963989   0.00000000          0.00   2889.13      0.00
   0.00000000   0.00000000   0.01963989          0.00      0.00   2889.13


     BFGS Geometry Optimization

     number of scf cycles    =   1
     number of bfgs steps    =   0

     enthalpy new            =   -1160.2415657572 Ry

     new trust radius        =       0.5000000000 bohr
     new conv_thr            =       0.0001000000 Ry

     new unit-cell volume =    525.13076 a.u.^3 (    77.81635 Ang^3 )

CELL_PARAMETERS (alat=  7.13166486)
   1.131266415   0.000000000   0.000000000
   0.000000000   1.131266415   0.000000000
   0.000000000   0.000000000   1.131266415

ATOMIC_POSITIONS (crystal)
Cu       0.000000000   0.500000000   0.500000000
Cu       0.500000000   0.500000000   0.000000000
Cu       0.500000000   0.000000000   0.500000000
Au       0.000000000   0.000000000   0.000000000



     Writing output data file Prototype-La-cP4-Cu3Au.save
     NEW-OLD atomic charge density approx. for the potential
     NEW k-points: (use verbosity='high' to print them)

     total cpu time spent up to now is      122.3 secs

     Self-consistent Calculation

     iteration #  1     ecut=    40.00 Ry     beta=0.70
     CG style diagonalization
     c_bands:  3 eigenvalues not converged
     c_bands:  4 eigenvalues not converged
     c_bands:  5 eigenvalues not converged
     c_bands:  5 eigenvalues not converged
     c_bands:  1 eigenvalues not converged
     c_bands:  1 eigenvalues not converged
     c_bands:  1 eigenvalues not converged
     c_bands:  1 eigenvalues not converged
     c_bands:  1 eigenvalues not converged
     c_bands:  1 eigenvalues not converged
     c_bands:  1 eigenvalues not converged
     c_bands:  5 eigenvalues not converged
     c_bands:  1 eigenvalues not converged
     c_bands:  2 eigenvalues not converged
     c_bands:  1 eigenvalues not converged
     ethr =  1.00E-06,  avg # of iterations = 20.8

     total cpu time spent up to now is      163.8 secs

     total energy              =   -1149.14874115 Ry
     Harris-Foulkes estimate   =   -1177.49743636 Ry
     estimated scf accuracy    <      35.85807319 Ry

     iteration #  2     ecut=    40.00 Ry     beta=0.70
     CG style diagonalization
     ethr =  1.00E-02,  avg # of iterations =  4.3

     total cpu time spent up to now is      172.7 secs

     total energy              =   -1157.07349613 Ry
     Harris-Foulkes estimate   =   -1163.60297834 Ry
     estimated scf accuracy    <      10.03098805 Ry

     iteration #  3     ecut=    40.00 Ry     beta=0.70
     CG style diagonalization
     ethr =  1.00E-02,  avg # of iterations =  3.6

     total cpu time spent up to now is      181.9 secs

     total energy              =   -1160.17097919 Ry
     Harris-Foulkes estimate   =   -1162.34404530 Ry
     estimated scf accuracy    <       4.96980140 Ry

     iteration #  4     ecut=    40.00 Ry     beta=0.70
     CG style diagonalization
     ethr =  5.99E-03,  avg # of iterations =  3.2

     total cpu time spent up to now is      188.6 secs

     total energy              =   -1160.85781605 Ry
     Harris-Foulkes estimate   =   -1160.91205473 Ry
     estimated scf accuracy    <       0.17121918 Ry

     iteration #  5     ecut=    40.00 Ry     beta=0.70
     CG style diagonalization
     c_bands:  1 eigenvalues not converged
     ethr =  2.06E-04,  avg # of iterations =  3.9

     total cpu time spent up to now is      196.7 secs

     total energy              =   -1160.89986408 Ry
     Harris-Foulkes estimate   =   -1160.90221226 Ry
     estimated scf accuracy    <       0.01213036 Ry

     iteration #  6     ecut=    40.00 Ry     beta=0.70
     CG style diagonalization
     c_bands:  1 eigenvalues not converged
     c_bands:  1 eigenvalues not converged
     c_bands:  1 eigenvalues not converged
     ethr =  1.46E-05,  avg # of iterations =  3.5

     total cpu time spent up to now is      204.3 secs

     total energy              =   -1160.89683700 Ry
     Harris-Foulkes estimate   =   -1160.90080028 Ry
     estimated scf accuracy    <       0.00825397 Ry

     iteration #  7     ecut=    40.00 Ry     beta=0.70
     CG style diagonalization
     ethr =  9.94E-06,  avg # of iterations =  3.8

     total cpu time spent up to now is      212.4 secs

     total energy              =   -1160.89760061 Ry
     Harris-Foulkes estimate   =   -1160.90060519 Ry
     estimated scf accuracy    <       0.00713898 Ry

     iteration #  8     ecut=    40.00 Ry     beta=0.70
     CG style diagonalization
     ethr =  8.60E-06,  avg # of iterations =  3.1

     total cpu time spent up to now is      219.0 secs

     total energy              =   -1160.89823437 Ry
     Harris-Foulkes estimate   =   -1160.89821582 Ry
     estimated scf accuracy    <       0.00106858 Ry

     iteration #  9     ecut=    40.00 Ry     beta=0.70
     CG style diagonalization
     ethr =  1.29E-06,  avg # of iterations =  3.1

     total cpu time spent up to now is      225.9 secs

     total energy              =   -1160.89803678 Ry
     Harris-Foulkes estimate   =   -1160.89827403 Ry
     estimated scf accuracy    <       0.00092962 Ry

     iteration # 10     ecut=    40.00 Ry     beta=0.70
     CG style diagonalization
     ethr =  1.12E-06,  avg # of iterations =  3.0

     total cpu time spent up to now is      234.0 secs

     total energy              =   -1160.89798984 Ry
     Harris-Foulkes estimate   =   -1160.89809000 Ry
     estimated scf accuracy    <       0.00054427 Ry

     iteration # 11     ecut=    40.00 Ry     beta=0.70
     CG style diagonalization
     ethr =  6.56E-07,  avg # of iterations =  3.0

     total cpu time spent up to now is      241.2 secs

     total energy              =   -1160.89801454 Ry
     Harris-Foulkes estimate   =   -1160.89800893 Ry
     estimated scf accuracy    <       0.00026177 Ry

     iteration # 12     ecut=    40.00 Ry     beta=0.70
     CG style diagonalization
     ethr =  3.15E-07,  avg # of iterations =  3.0

     total cpu time spent up to now is      247.6 secs

     total energy              =   -1160.89805053 Ry
     Harris-Foulkes estimate   =   -1160.89801692 Ry
     estimated scf accuracy    <       0.00025064 Ry

     iteration # 13     ecut=    40.00 Ry     beta=0.70
     CG style diagonalization
     ethr =  3.02E-07,  avg # of iterations =  3.0

     total cpu time spent up to now is      254.6 secs

     total energy              =   -1160.89809006 Ry
     Harris-Foulkes estimate   =   -1160.89805212 Ry
     estimated scf accuracy    <       0.00033578 Ry

     iteration # 14     ecut=    40.00 Ry     beta=0.70
     CG style diagonalization
     ethr =  3.02E-07,  avg # of iterations =  3.0

     total cpu time spent up to now is      262.5 secs

     total energy              =   -1160.89809619 Ry
     Harris-Foulkes estimate   =   -1160.89809278 Ry
     estimated scf accuracy    <       0.00047142 Ry

     iteration # 15     ecut=    40.00 Ry     beta=0.70
     CG style diagonalization
     ethr =  3.02E-07,  avg # of iterations =  3.0

     total cpu time spent up to now is      268.8 secs

     total energy              =   -1160.89807455 Ry
     Harris-Foulkes estimate   =   -1160.89809643 Ry
     estimated scf accuracy    <       0.00048761 Ry

     iteration # 16     ecut=    40.00 Ry     beta=0.70
     CG style diagonalization
     ethr =  3.02E-07,  avg # of iterations =  3.0

     total cpu time spent up to now is      275.2 secs

     total energy              =   -1160.89805773 Ry
     Harris-Foulkes estimate   =   -1160.89807493 Ry
     estimated scf accuracy    <       0.00042866 Ry

     iteration # 17     ecut=    40.00 Ry     beta=0.70
     CG style diagonalization
     ethr =  3.02E-07,  avg # of iterations =  3.0

     total cpu time spent up to now is      281.4 secs

     total energy              =   -1160.89783834 Ry
     Harris-Foulkes estimate   =   -1160.89805822 Ry
     estimated scf accuracy    <       0.00037302 Ry

     iteration # 18     ecut=    40.00 Ry     beta=0.70
     CG style diagonalization
     ethr =  3.02E-07,  avg # of iterations =  3.7

     total cpu time spent up to now is      288.4 secs

     End of self-consistent calculation

     Number of k-points >= 100: set verbosity='high' to print the bands.

     the Fermi energy is    29.1873 ev

!    total energy              =   -1160.89792768 Ry
     Harris-Foulkes estimate   =   -1160.89796067 Ry
     estimated scf accuracy    <       0.00003527 Ry

     The total energy is the sum of the following terms:

     one-electron contribution =    -260.12810412 Ry
     hartree contribution      =     185.53867849 Ry
     xc contribution           =    -102.21848564 Ry
     ewald contribution        =    -983.97866203 Ry
     smearing contrib. (-TS)   =      -0.11135438 Ry

     convergence has been achieved in  18 iterations

     Forces acting on atoms (Ry/au):

     atom    1 type  1   force =     0.00000000    0.00000000    0.00000000
     atom    2 type  1   force =     0.00000000    0.00000000    0.00000000
     atom    3 type  1   force =     0.00000000    0.00000000    0.00000000
     atom    4 type  2   force =     0.00000000    0.00000000    0.00000000

     Total force =     0.000000     Total SCF correction =     0.000000


     entering subroutine stress ...

          total   stress  (Ry/bohr**3)                   (kbar)     P= -833.10
  -0.00566333   0.00000000   0.00000000       -833.10      0.00      0.00
   0.00000000  -0.00566333   0.00000000          0.00   -833.10      0.00
   0.00000000   0.00000000  -0.00566333          0.00      0.00   -833.10


     number of scf cycles    =   2
     number of bfgs steps    =   1

     enthalpy old            =   -1160.2415657572 Ry
     enthalpy new            =   -1160.8979276801 Ry

     CASE: enthalpy_new < enthalpy_old

     small trust_radius: resetting bfgs history

     new trust radius        =       0.6488969429 bohr
     new conv_thr            =       0.0000010000 Ry

     new unit-cell volume =    332.17118 a.u.^3 (    49.22269 Ang^3 )

CELL_PARAMETERS (alat=  7.13166486)
   0.971097991   0.000000000   0.000000000
   0.000000000   0.971097991   0.000000000
   0.000000000   0.000000000   0.971097991

ATOMIC_POSITIONS (crystal)
Cu       0.000000000   0.500000000   0.500000000
Cu       0.500000000   0.500000000   0.000000000
Cu       0.500000000   0.000000000   0.500000000
Au       0.000000000   0.000000000   0.000000000



     Writing output data file Prototype-La-cP4-Cu3Au.save
     NEW-OLD atomic charge density approx. for the potential
     NEW k-points: (use verbosity='high' to print them)

     total cpu time spent up to now is      290.8 secs

     Self-consistent Calculation

     iteration #  1     ecut=    40.00 Ry     beta=0.70
     CG style diagonalization
     c_bands:  1 eigenvalues not converged
     c_bands:  1 eigenvalues not converged
     c_bands:  4 eigenvalues not converged
     c_bands:  4 eigenvalues not converged
     c_bands:  3 eigenvalues not converged
     c_bands:  2 eigenvalues not converged
     c_bands:  3 eigenvalues not converged
     c_bands:  2 eigenvalues not converged
     c_bands:  5 eigenvalues not converged
     c_bands:  1 eigenvalues not converged
     c_bands:  1 eigenvalues not converged
     c_bands:  1 eigenvalues not converged
     c_bands:  3 eigenvalues not converged
     c_bands:  1 eigenvalues not converged
     c_bands:  1 eigenvalues not converged
     c_bands:  1 eigenvalues not converged
     c_bands:  1 eigenvalues not converged
     c_bands:  2 eigenvalues not converged
     c_bands:  2 eigenvalues not converged
     c_bands:  1 eigenvalues not converged
     c_bands:  1 eigenvalues not converged
     c_bands:  1 eigenvalues not converged
     c_bands:  1 eigenvalues not converged
     c_bands:  2 eigenvalues not converged
     c_bands:  1 eigenvalues not converged
     c_bands:  1 eigenvalues not converged
     c_bands:  2 eigenvalues not converged
     c_bands:  1 eigenvalues not converged
     c_bands:  1 eigenvalues not converged
     c_bands:  1 eigenvalues not converged
     c_bands:  3 eigenvalues not converged
     c_bands:  1 eigenvalues not converged
     c_bands:  1 eigenvalues not converged
     c_bands:  3 eigenvalues not converged
     c_bands:  1 eigenvalues not converged
     c_bands:  1 eigenvalues not converged
     c_bands:  2 eigenvalues not converged
     c_bands:  1 eigenvalues not converged
     c_bands:  1 eigenvalues not converged
     c_bands:  1 eigenvalues not converged
     c_bands:  2 eigenvalues not converged
     c_bands:  1 eigenvalues not converged
     c_bands:  1 eigenvalues not converged
     c_bands:  2 eigenvalues not converged
     c_bands:  2 eigenvalues not converged
     c_bands:  1 eigenvalues not converged
     c_bands:  2 eigenvalues not converged
     c_bands:  1 eigenvalues not converged
     c_bands:  2 eigenvalues not converged
     c_bands:  1 eigenvalues not converged
     ethr =  1.00E-06,  avg # of iterations = 23.5

     total cpu time spent up to now is      337.5 secs

     total energy              =   -1140.70918391 Ry
     Harris-Foulkes estimate   =   -1187.26463004 Ry
     estimated scf accuracy    <      58.01071979 Ry

     iteration #  2     ecut=    40.00 Ry     beta=0.70
     CG style diagonalization
     ethr =  1.00E-02,  avg # of iterations =  4.7

     total cpu time spent up to now is      347.3 secs

     total energy              =   -1158.19338352 Ry
     Harris-Foulkes estimate   =   -1162.48821224 Ry
     estimated scf accuracy    <       6.34472555 Ry

     iteration #  3     ecut=    40.00 Ry     beta=0.70
     CG style diagonalization
     ethr =  7.64E-03,  avg # of iterations =  3.6

     total cpu time spent up to now is      355.1 secs

     total energy              =   -1159.43030032 Ry
     Harris-Foulkes estimate   =   -1159.54737505 Ry
     estimated scf accuracy    <       0.17804206 Ry

     iteration #  4     ecut=    40.00 Ry     beta=0.70
     CG style diagonalization
     c_bands:  1 eigenvalues not converged
     c_bands:  1 eigenvalues not converged
     c_bands:  1 eigenvalues not converged
     ethr =  2.15E-04,  avg # of iterations =  4.2

     total cpu time spent up to now is      364.1 secs

     total energy              =   -1159.46958476 Ry
     Harris-Foulkes estimate   =   -1159.51800383 Ry
     estimated scf accuracy    <       0.08610853 Ry

     iteration #  5     ecut=    40.00 Ry     beta=0.70
     CG style diagonalization
     c_bands:  1 eigenvalues not converged
     ethr =  1.04E-04,  avg # of iterations =  3.5

     total cpu time spent up to now is      371.8 secs

     total energy              =   -1159.49150269 Ry
     Harris-Foulkes estimate   =   -1159.49309723 Ry
     estimated scf accuracy    <       0.00334526 Ry

     iteration #  6     ecut=    40.00 Ry     beta=0.70
     CG style diagonalization
     c_bands:  1 eigenvalues not converged
     c_bands:  1 eigenvalues not converged
     c_bands:  1 eigenvalues not converged
     c_bands:  1 eigenvalues not converged
     c_bands:  1 eigenvalues not converged
     c_bands:  1 eigenvalues not converged
     c_bands:  1 eigenvalues not converged
     c_bands:  1 eigenvalues not converged
     c_bands:  1 eigenvalues not converged
     c_bands:  1 eigenvalues not converged
     c_bands:  1 eigenvalues not converged
     c_bands:  1 eigenvalues not converged
     c_bands:  1 eigenvalues not converged
     ethr =  4.03E-06,  avg # of iterations =  4.4

     total cpu time spent up to now is      381.5 secs

     total energy              =   -1159.49249477 Ry
     Harris-Foulkes estimate   =   -1159.49265460 Ry
     estimated scf accuracy    <       0.00027416 Ry

     iteration #  7     ecut=    40.00 Ry     beta=0.70
     CG style diagonalization
     c_bands:  1 eigenvalues not converged
     c_bands:  1 eigenvalues not converged
     c_bands:  1 eigenvalues not converged
     c_bands:  1 eigenvalues not converged
     c_bands:  1 eigenvalues not converged
     ethr =  3.30E-07,  avg # of iterations =  4.0

     total cpu time spent up to now is      389.8 secs

     total energy              =   -1159.49260932 Ry
     Harris-Foulkes estimate   =   -1159.49261119 Ry
     estimated scf accuracy    <       0.00000299 Ry

     iteration #  8     ecut=    40.00 Ry     beta=0.70
     CG style diagonalization
     c_bands:  1 eigenvalues not converged
     ethr =  3.60E-09,  avg # of iterations =  5.0

     total cpu time spent up to now is      399.6 secs

     End of self-consistent calculation

     Number of k-points >= 100: set verbosity='high' to print the bands.

     the Fermi energy is    48.5806 ev

!    total energy              =   -1159.49261432 Ry
     Harris-Foulkes estimate   =   -1159.49261444 Ry
     estimated scf accuracy    <       0.00000014 Ry

     The total energy is the sum of the following terms:

     one-electron contribution =     -29.28652237 Ry
     hartree contribution      =     122.22056261 Ry
     xc contribution           =    -106.04479210 Ry
     ewald contribution        =   -1146.27156034 Ry
     smearing contrib. (-TS)   =      -0.11030213 Ry

     convergence has been achieved in   8 iterations

     Forces acting on atoms (Ry/au):

     atom    1 type  1   force =     0.00000000    0.00000000    0.00000000
     atom    2 type  1   force =     0.00000000    0.00000000    0.00000000
     atom    3 type  1   force =     0.00000000    0.00000000    0.00000000
     atom    4 type  2   force =     0.00000000    0.00000000    0.00000000

     Total force =     0.000000     Total SCF correction =     0.000000


     entering subroutine stress ...

          total   stress  (Ry/bohr**3)                   (kbar)     P= 4374.02
   0.02973399   0.00000000   0.00000000       4374.02      0.00      0.00
   0.00000000   0.02973399   0.00000000          0.00   4374.02      0.00
   0.00000000   0.00000000   0.02973399          0.00      0.00   4374.02


     number of scf cycles    =   3
     number of bfgs steps    =   2

     enthalpy old            =   -1160.8979276801 Ry
     enthalpy new            =   -1159.4926143184 Ry

     CASE: enthalpy_new > enthalpy_old

     new trust radius        =       0.1422976937 bohr

     trust_radius < trust_radius_min

     resetting bfgs history

     Message from routine bfgs:
     history already reset at previous step: stopping
     new conv_thr            =       0.0000010000 Ry

     new unit-cell volume =    360.61513 a.u.^3 (    53.43765 Ang^3 )

CELL_PARAMETERS (alat=  7.13166486)
   0.998060934   0.000000000   0.000000000
   0.000000000   0.998060934   0.000000000
   0.000000000   0.000000000   0.998060934

ATOMIC_POSITIONS (crystal)
Cu       0.000000000   0.500000000   0.500000000
Cu       0.500000000   0.500000000   0.000000000
Cu       0.500000000   0.000000000   0.500000000
Au       0.000000000   0.000000000   0.000000000



     Writing output data file Prototype-La-cP4-Cu3Au.save
     NEW-OLD atomic charge density approx. for the potential
     NEW k-points: (use verbosity='high' to print them)

     total cpu time spent up to now is      402.6 secs

     Self-consistent Calculation

     iteration #  1     ecut=    40.00 Ry     beta=0.70
     CG style diagonalization
     c_bands:  1 eigenvalues not converged
     c_bands:  3 eigenvalues not converged
     c_bands:  3 eigenvalues not converged
     c_bands:  2 eigenvalues not converged
     c_bands:  4 eigenvalues not converged
     c_bands:  1 eigenvalues not converged
     c_bands:  1 eigenvalues not converged
     c_bands:  1 eigenvalues not converged
     c_bands:  2 eigenvalues not converged
     c_bands:  1 eigenvalues not converged
     c_bands:  2 eigenvalues not converged
     c_bands:  1 eigenvalues not converged
     c_bands:  1 eigenvalues not converged
     c_bands:  1 eigenvalues not converged
     c_bands:  1 eigenvalues not converged
     c_bands:  2 eigenvalues not converged
     c_bands:  2 eigenvalues not converged
     c_bands:  2 eigenvalues not converged
     c_bands:  1 eigenvalues not converged
     c_bands:  2 eigenvalues not converged
     c_bands:  5 eigenvalues not converged
     c_bands:  2 eigenvalues not converged
     c_bands:  3 eigenvalues not converged
     c_bands:  4 eigenvalues not converged
     c_bands:  1 eigenvalues not converged
     c_bands:  3 eigenvalues not converged
     c_bands:  4 eigenvalues not converged
     c_bands:  3 eigenvalues not converged
     c_bands:  3 eigenvalues not converged
     c_bands:  2 eigenvalues not converged
     c_bands:  1 eigenvalues not converged
     c_bands:  1 eigenvalues not converged
     c_bands:  1 eigenvalues not converged
     c_bands:  1 eigenvalues not converged
     c_bands:  1 eigenvalues not converged
     c_bands:  2 eigenvalues not converged
     c_bands:  2 eigenvalues not converged
     c_bands:  2 eigenvalues not converged
     c_bands:  1 eigenvalues not converged
     c_bands:  4 eigenvalues not converged
     c_bands:  1 eigenvalues not converged
     c_bands:  3 eigenvalues not converged
     c_bands:  3 eigenvalues not converged
     c_bands:  2 eigenvalues not converged
     c_bands:  2 eigenvalues not converged
     c_bands:  5 eigenvalues not converged
     c_bands:  1 eigenvalues not converged
     c_bands:  2 eigenvalues not converged
     c_bands:  2 eigenvalues not converged
     c_bands:  2 eigenvalues not converged
     c_bands:  1 eigenvalues not converged
     c_bands:  1 eigenvalues not converged
     c_bands:  2 eigenvalues not converged
     c_bands:  2 eigenvalues not converged
     c_bands:  1 eigenvalues not converged
     c_bands:  4 eigenvalues not converged
     c_bands:  4 eigenvalues not converged
     c_bands:  5 eigenvalues not converged
     c_bands:  4 eigenvalues not converged
     c_bands:  2 eigenvalues not converged
     c_bands:  3 eigenvalues not converged
     c_bands:  5 eigenvalues not converged
     c_bands:  1 eigenvalues not converged
     c_bands:  3 eigenvalues not converged
     c_bands:  1 eigenvalues not converged
     c_bands:  2 eigenvalues not converged
     c_bands:  2 eigenvalues not converged
     c_bands:  1 eigenvalues not converged
     c_bands:  2 eigenvalues not converged
     ethr =  1.00E-06,  avg # of iterations = 11.3

     total cpu time spent up to now is      425.6 secs

     total energy              =   -1159.62296929 Ry
     Harris-Foulkes estimate   =   -1161.02580053 Ry
     estimated scf accuracy    <       1.77649290 Ry

     iteration #  2     ecut=    40.00 Ry     beta=0.70
     CG style diagonalization
     ethr =  2.14E-03,  avg # of iterations =  3.8

     total cpu time spent up to now is      433.1 secs

     total energy              =   -1160.15304022 Ry
     Harris-Foulkes estimate   =   -1160.28040324 Ry
     estimated scf accuracy    <       0.18932677 Ry

     iteration #  3     ecut=    40.00 Ry     beta=0.70
     CG style diagonalization
     ethr =  2.28E-04,  avg # of iterations =  3.7

     total cpu time spent up to now is      440.5 secs

     total energy              =   -1160.19712402 Ry
     Harris-Foulkes estimate   =   -1160.20058212 Ry
     estimated scf accuracy    <       0.00557965 Ry

     iteration #  4     ecut=    40.00 Ry     beta=0.70
     CG style diagonalization
     ethr =  6.72E-06,  avg # of iterations =  4.2

     total cpu time spent up to now is      448.7 secs

     total energy              =   -1160.19934523 Ry
     Harris-Foulkes estimate   =   -1160.19971600 Ry
     estimated scf accuracy    <       0.00075181 Ry

     iteration #  5     ecut=    40.00 Ry     beta=0.70
     CG style diagonalization
     ethr =  9.06E-07,  avg # of iterations =  3.4

     total cpu time spent up to now is      456.0 secs

     total energy              =   -1160.19950261 Ry
     Harris-Foulkes estimate   =   -1160.19950724 Ry
     estimated scf accuracy    <       0.00000793 Ry

     iteration #  6     ecut=    40.00 Ry     beta=0.70
     CG style diagonalization
     ethr =  9.55E-09,  avg # of iterations =  4.5

     total cpu time spent up to now is      464.6 secs

     End of self-consistent calculation

     Number of k-points >= 100: set verbosity='high' to print the bands.

     the Fermi energy is    44.6823 ev

!    total energy              =   -1160.19950909 Ry
     Harris-Foulkes estimate   =   -1160.19950963 Ry
     estimated scf accuracy    <       0.00000063 Ry

     The total energy is the sum of the following terms:

     one-electron contribution =     -72.55877482 Ry
     hartree contribution      =     132.98706400 Ry
     xc contribution           =    -105.22379228 Ry
     ewald contribution        =   -1115.30465969 Ry
     smearing contrib. (-TS)   =      -0.09934630 Ry

     convergence has been achieved in   6 iterations

     Forces acting on atoms (Ry/au):

     atom    1 type  1   force =     0.00000000    0.00000000    0.00000000
     atom    2 type  1   force =     0.00000000    0.00000000    0.00000000
     atom    3 type  1   force =     0.00000000    0.00000000    0.00000000
     atom    4 type  2   force =     0.00000000    0.00000000    0.00000000

     Total force =     0.000000     Total SCF correction =     0.000000


     entering subroutine stress ...

          total   stress  (Ry/bohr**3)                   (kbar)     P= 2985.96
   0.02029816   0.00000000   0.00000000       2985.96      0.00      0.00
   0.00000000   0.02029816   0.00000000          0.00   2985.96      0.00
   0.00000000   0.00000000   0.02029816          0.00      0.00   2985.96


     The maximum number of steps has been reached.

     End of BFGS Geometry Optimization
Begin final coordinates
     new unit-cell volume =    360.61513 a.u.^3 (    53.43765 Ang^3 )

CELL_PARAMETERS (alat=  7.13166486)
   0.998060934   0.000000000   0.000000000
   0.000000000   0.998060934   0.000000000
   0.000000000   0.000000000   0.998060934

ATOMIC_POSITIONS (crystal)
Cu       0.000000000   0.500000000   0.500000000
Cu       0.500000000   0.500000000   0.000000000
Cu       0.500000000   0.000000000   0.500000000
Au       0.000000000   0.000000000   0.000000000
End final coordinates



     A final scf calculation at the relaxed structure.
     The G-vectors are recalculated for the final unit cell
     Results may differ from those at the preceding step.
 
     Parallelization info
     --------------------
     sticks:   dense  smooth     PW     G-vecs:    dense   smooth      PW
     Min         163     163     48                 3073     3073     524
     Max         165     165     49                 3074     3074     527
     Sum         657     657    193                12293    12293    2103
 


     bravais-lattice index     =            0
     lattice parameter (alat)  =       7.1317  a.u.
     unit-cell volume          =     360.6151 (a.u.)^3
     number of atoms/cell      =            4
     number of atomic types    =            2
     number of electrons       =        83.00
     number of Kohn-Sham states=           50
     kinetic-energy cutoff     =      40.0000  Ry
     charge density cutoff     =     160.0000  Ry
     convergence threshold     =      1.0E-06
     mixing beta               =       0.7000
     number of iterations used =            8  plain     mixing
     Exchange-correlation      = SLA-PZ-NOGX-NOGC ( 1 1 0 0 0)
     EXX-fraction              =        0.00

     celldm(1)=   7.131665  celldm(2)=   0.000000  celldm(3)=   0.000000
     celldm(4)=   0.000000  celldm(5)=   0.000000  celldm(6)=   0.000000

     crystal axes: (cart. coord. in units of alat)
               a(1) = (   0.998061   0.000000   0.000000 )  
               a(2) = (   0.000000   0.998061   0.000000 )  
               a(3) = (   0.000000   0.000000   0.998061 )  

     reciprocal axes: (cart. coord. in units 2 pi/alat)
               b(1) = (  1.001943  0.000000  0.000000 )  
               b(2) = (  0.000000  1.001943  0.000000 )  
               b(3) = (  0.000000  0.000000  1.001943 )  


     PseudoPot. # 1 for Er read from file:
     /home/cwx6513/pp.La/Er.UPF
     MD5 check sum: e152ae21b84514339d8526f066caf99b
     Pseudo is Norm-conserving, Zval = 22.0
     Generated in analytical, separable form
     Using radial grid of 1267 points,  6 beta functions with: 
                l(1) =   0
                l(2) =   0
                l(3) =   1
                l(4) =   1
                l(5) =   2
                l(6) =   3

     PseudoPot. # 2 for Eu read from file:
     /home/cwx6513/pp.La/Eu.UPF
     MD5 check sum: 5efdbbfc50c6a10138933a6429836ad2
     Pseudo is Norm-conserving, Zval = 17.0
     Generated in analytical, separable form
     Using radial grid of 1261 points,  6 beta functions with: 
                l(1) =   0
                l(2) =   0
                l(3) =   1
                l(4) =   1
                l(5) =   2
                l(6) =   3

     atomic species   valence    mass     pseudopotential
        Cu            22.00    63.54600     Er( 1.00)
        Au            17.00   196.96600     Eu( 1.00)

     48 Sym. Ops., with inversion, found



   Cartesian axes

     site n.     atom                  positions (alat units)
         1           Cu  tau(   1) = (   0.0000000   0.4990305   0.4990305  )
         2           Cu  tau(   2) = (   0.4990305   0.4990305   0.0000000  )
         3           Cu  tau(   3) = (   0.4990305   0.0000000   0.4990305  )
         4           Au  tau(   4) = (   0.0000000   0.0000000   0.0000000  )

     number of k points=   100  gaussian smearing, width (Ry)=  0.1000

     Number of k-points >= 100: set verbosity='high' to print them.

     Dense  grid:    12293 G-vectors     FFT dimensions: (  30,  30,  30)

     Largest allocated arrays     est. size (Mb)     dimensions
        Kohn-Sham Wavefunctions         0.31 Mb     (    400,   50)
        NL pseudopotentials             0.49 Mb     (    400,   80)
        Each V/rho on FFT grid          0.11 Mb     (   7200)
        Each G-vector array             0.02 Mb     (   3074)
        G-vector shells                 0.00 Mb     (    172)
     Largest temporary arrays     est. size (Mb)     dimensions
        Each subspace H/S matrix        0.04 Mb     (  50,  50)
        Each <psi_i|beta_j> matrix      0.06 Mb     (     80,   50)
        Arrays for rho mixing           0.88 Mb     (   7200,   8)

     Initial potential from superposition of free atoms

     Starting from uniform charge
     Starting wfc are    0 randomized atomic wfcs

     Writing output data file Prototype-La-cP4-Cu3Au.save

     total cpu time spent up to now is      469.0 secs

     Self-consistent Calculation

     iteration #  1     ecut=    40.00 Ry     beta=0.70
     CG style diagonalization
     c_bands:  1 eigenvalues not converged
     c_bands:  2 eigenvalues not converged
     c_bands:  5 eigenvalues not converged
     c_bands:  3 eigenvalues not converged
     c_bands:  3 eigenvalues not converged
     c_bands:  4 eigenvalues not converged
     c_bands:  3 eigenvalues not converged
     c_bands:  3 eigenvalues not converged
     c_bands:  2 eigenvalues not converged
     c_bands:  5 eigenvalues not converged
     c_bands:  4 eigenvalues not converged
     c_bands:  3 eigenvalues not converged
     c_bands:  5 eigenvalues not converged
     c_bands:  4 eigenvalues not converged
     c_bands:  3 eigenvalues not converged
     c_bands:  5 eigenvalues not converged
     c_bands:  4 eigenvalues not converged
     c_bands:  5 eigenvalues not converged
     c_bands:  5 eigenvalues not converged
     c_bands:  2 eigenvalues not converged
     c_bands:  5 eigenvalues not converged
     c_bands:  5 eigenvalues not converged
     c_bands:  3 eigenvalues not converged
     c_bands:  3 eigenvalues not converged
     c_bands:  2 eigenvalues not converged
     c_bands:  5 eigenvalues not converged
     c_bands:  3 eigenvalues not converged
     c_bands:  3 eigenvalues not converged
     c_bands:  3 eigenvalues not converged
     c_bands:  5 eigenvalues not converged
     c_bands:  4 eigenvalues not converged
     c_bands:  3 eigenvalues not converged
     c_bands:  5 eigenvalues not converged
     c_bands:  3 eigenvalues not converged
     c_bands:  5 eigenvalues not converged
     c_bands:  4 eigenvalues not converged
     c_bands:  3 eigenvalues not converged
     c_bands:  3 eigenvalues not converged
     c_bands:  3 eigenvalues not converged
     c_bands:  3 eigenvalues not converged
     c_bands:  4 eigenvalues not converged
     c_bands:  3 eigenvalues not converged
     c_bands:  4 eigenvalues not converged
     c_bands:  5 eigenvalues not converged
     c_bands:  4 eigenvalues not converged
     c_bands:  3 eigenvalues not converged
     c_bands:  4 eigenvalues not converged
     c_bands:  3 eigenvalues not converged
     c_bands:  2 eigenvalues not converged
     c_bands:  5 eigenvalues not converged
     c_bands:  2 eigenvalues not converged
     c_bands:  5 eigenvalues not converged
     c_bands:  3 eigenvalues not converged
     c_bands:  4 eigenvalues not converged
     c_bands:  2 eigenvalues not converged
     c_bands:  5 eigenvalues not converged
     c_bands:  2 eigenvalues not converged
     c_bands:  3 eigenvalues not converged
     c_bands:  4 eigenvalues not converged
     c_bands:  4 eigenvalues not converged
     c_bands:  5 eigenvalues not converged
     c_bands:  4 eigenvalues not converged
     c_bands:  4 eigenvalues not converged
     c_bands:  2 eigenvalues not converged
     c_bands:  4 eigenvalues not converged
     c_bands:  4 eigenvalues not converged
     c_bands:  4 eigenvalues not converged
     c_bands:  5 eigenvalues not converged
     c_bands:  5 eigenvalues not converged
     c_bands:  4 eigenvalues not converged
     c_bands:  5 eigenvalues not converged
     c_bands:  5 eigenvalues not converged
     c_bands:  1 eigenvalues not converged
     c_bands:  1 eigenvalues not converged
     c_bands:  2 eigenvalues not converged
     c_bands:  4 eigenvalues not converged
     c_bands:  5 eigenvalues not converged
     c_bands:  5 eigenvalues not converged
     c_bands:  4 eigenvalues not converged
     c_bands:  4 eigenvalues not converged
     c_bands:  5 eigenvalues not converged
     c_bands:  3 eigenvalues not converged
     c_bands:  3 eigenvalues not converged
     c_bands:  5 eigenvalues not converged
     c_bands:  3 eigenvalues not converged
     c_bands:  3 eigenvalues not converged
     c_bands:  3 eigenvalues not converged
     c_bands:  2 eigenvalues not converged
     c_bands:  1 eigenvalues not converged
     c_bands:  5 eigenvalues not converged
     c_bands:  5 eigenvalues not converged
     c_bands:  5 eigenvalues not converged
     c_bands:  1 eigenvalues not converged
     c_bands:  2 eigenvalues not converged
     c_bands:  2 eigenvalues not converged
     c_bands:  4 eigenvalues not converged
     c_bands:  1 eigenvalues not converged
     c_bands:  5 eigenvalues not converged
     c_bands:  2 eigenvalues not converged
     ethr =  1.00E-06,  avg # of iterations = 48.3

     total cpu time spent up to now is      560.0 secs

     total energy              =    -976.17947808 Ry
     Harris-Foulkes estimate   =   -1378.67275133 Ry
     estimated scf accuracy    <     506.35529182 Ry

     iteration #  2     ecut=    40.00 Ry     beta=0.70
     CG style diagonalization
     c_bands:  1 eigenvalues not converged
     c_bands:  1 eigenvalues not converged
     c_bands:  1 eigenvalues not converged
     c_bands:  1 eigenvalues not converged
     c_bands:  1 eigenvalues not converged
     c_bands:  1 eigenvalues not converged
     c_bands:  1 eigenvalues not converged
     c_bands:  1 eigenvalues not converged
     c_bands:  1 eigenvalues not converged
     c_bands:  1 eigenvalues not converged
     c_bands:  1 eigenvalues not converged
     c_bands:  1 eigenvalues not converged
     c_bands:  1 eigenvalues not converged
     c_bands:  1 eigenvalues not converged
     c_bands:  1 eigenvalues not converged
     c_bands:  1 eigenvalues not converged
     c_bands:  1 eigenvalues not converged
     ethr =  1.00E-02,  avg # of iterations = 11.2

     total cpu time spent up to now is      583.0 secs

     total energy              =   -1018.99949780 Ry
     Harris-Foulkes estimate   =   -1253.55084322 Ry
     estimated scf accuracy    <     407.36963912 Ry

     iteration #  3     ecut=    40.00 Ry     beta=0.70
     CG style diagonalization
     c_bands:  1 eigenvalues not converged
     c_bands:  1 eigenvalues not converged
     c_bands:  1 eigenvalues not converged
     c_bands:  1 eigenvalues not converged
     c_bands:  1 eigenvalues not converged
     c_bands:  1 eigenvalues not converged
     c_bands:  1 eigenvalues not converged
     ethr =  1.00E-02,  avg # of iterations =  9.5

     total cpu time spent up to now is      602.4 secs

     total energy              =   -1148.19171958 Ry
     Harris-Foulkes estimate   =   -1189.92834859 Ry
     estimated scf accuracy    <      96.24846141 Ry

     iteration #  4     ecut=    40.00 Ry     beta=0.70
     CG style diagonalization
     ethr =  1.00E-02,  avg # of iterations =  4.9

     total cpu time spent up to now is      612.3 secs

     total energy              =   -1160.05864278 Ry
     Harris-Foulkes estimate   =   -1161.47045232 Ry
     estimated scf accuracy    <       3.99067504 Ry

     iteration #  5     ecut=    40.00 Ry     beta=0.70
     CG style diagonalization
     ethr =  4.81E-03,  avg # of iterations =  3.3

     total cpu time spent up to now is      619.3 secs

     total energy              =   -1159.79336843 Ry
     Harris-Foulkes estimate   =   -1160.43408921 Ry
     estimated scf accuracy    <       1.04299057 Ry

     iteration #  6     ecut=    40.00 Ry     beta=0.70
     CG style diagonalization
     ethr =  1.26E-03,  avg # of iterations =  4.1

     total cpu time spent up to now is      628.8 secs

     total energy              =   -1160.14652200 Ry
     Harris-Foulkes estimate   =   -1160.24162435 Ry
     estimated scf accuracy    <       0.21268296 Ry

     iteration #  7     ecut=    40.00 Ry     beta=0.70
     CG style diagonalization
     ethr =  2.56E-04,  avg # of iterations =  3.6

     total cpu time spent up to now is      636.4 secs

     total energy              =   -1160.17411313 Ry
     Harris-Foulkes estimate   =   -1160.18196740 Ry
     estimated scf accuracy    <       0.01192794 Ry

     iteration #  8     ecut=    40.00 Ry     beta=0.70
     CG style diagonalization
     c_bands:  1 eigenvalues not converged
     c_bands:  1 eigenvalues not converged
     c_bands:  3 eigenvalues not converged
     c_bands:  1 eigenvalues not converged
     c_bands:  1 eigenvalues not converged
     c_bands:  1 eigenvalues not converged
     c_bands:  1 eigenvalues not converged
     c_bands:  1 eigenvalues not converged
     c_bands:  1 eigenvalues not converged
     c_bands:  1 eigenvalues not converged
     c_bands:  1 eigenvalues not converged
     ethr =  1.44E-05,  avg # of iterations =  4.5

     total cpu time spent up to now is      645.6 secs

     total energy              =   -1160.17982571 Ry
     Harris-Foulkes estimate   =   -1160.18192318 Ry
     estimated scf accuracy    <       0.00433660 Ry

     iteration #  9     ecut=    40.00 Ry     beta=0.70
     CG style diagonalization
     c_bands:  1 eigenvalues not converged
     c_bands:  1 eigenvalues not converged
     c_bands:  1 eigenvalues not converged
     c_bands:  1 eigenvalues not converged
     c_bands:  1 eigenvalues not converged
     ethr =  5.22E-06,  avg # of iterations =  3.6

     total cpu time spent up to now is      653.7 secs

     total energy              =   -1160.18070998 Ry
     Harris-Foulkes estimate   =   -1160.18071974 Ry
     estimated scf accuracy    <       0.00002773 Ry

     iteration # 10     ecut=    40.00 Ry     beta=0.70
     CG style diagonalization
     c_bands:  1 eigenvalues not converged
     c_bands:  1 eigenvalues not converged
     c_bands:  1 eigenvalues not converged
     c_bands:  1 eigenvalues not converged
     ethr =  3.34E-08,  avg # of iterations =  5.0

     total cpu time spent up to now is      665.2 secs

     total energy              =   -1160.18075335 Ry
     Harris-Foulkes estimate   =   -1160.18075425 Ry
     estimated scf accuracy    <       0.00000178 Ry

     iteration # 11     ecut=    40.00 Ry     beta=0.70
     CG style diagonalization
     c_bands:  1 eigenvalues not converged
     ethr =  2.15E-09,  avg # of iterations =  3.6

     total cpu time spent up to now is      671.9 secs

     End of self-consistent calculation

     Number of k-points >= 100: set verbosity='high' to print the bands.

     the Fermi energy is    44.6865 ev

!    total energy              =   -1160.18075374 Ry
     Harris-Foulkes estimate   =   -1160.18075383 Ry
     estimated scf accuracy    <       0.00000012 Ry

     The total energy is the sum of the following terms:

     one-electron contribution =     -72.53239283 Ry
     hartree contribution      =     132.97670394 Ry
     xc contribution           =    -105.22109134 Ry
     ewald contribution        =   -1115.30465969 Ry
     smearing contrib. (-TS)   =      -0.09931382 Ry

     convergence has been achieved in  11 iterations

     Forces acting on atoms (Ry/au):

     atom    1 type  1   force =     0.00000000    0.00000000    0.00000000
     atom    2 type  1   force =     0.00000000    0.00000000    0.00000000
     atom    3 type  1   force =     0.00000000    0.00000000    0.00000000
     atom    4 type  2   force =     0.00000000    0.00000000    0.00000000

     Total force =     0.000000     Total SCF correction =     0.000000


     entering subroutine stress ...

          total   stress  (Ry/bohr**3)                   (kbar)     P= 2969.94
   0.02018927   0.00000000   0.00000000       2969.94      0.00      0.00
   0.00000000   0.02018927   0.00000000          0.00   2969.94      0.00
   0.00000000   0.00000000   0.02018927          0.00      0.00   2969.94


     Writing output data file Prototype-La-cP4-Cu3Au.save
 
     init_run     :      3.09s CPU      4.11s WALL (       2 calls)
     electrons    :    600.69s CPU    657.70s WALL (       5 calls)
     update_pot   :      0.81s CPU      0.83s WALL (       3 calls)
     forces       :      2.20s CPU      2.39s WALL (       5 calls)
     stress       :      6.16s CPU      6.27s WALL (       5 calls)

     Called by init_run:
     wfcinit      :      2.76s CPU      3.08s WALL (       2 calls)
     potinit      :      0.12s CPU      0.12s WALL (       2 calls)

     Called by electrons:
     c_bands      :    573.06s CPU    608.20s WALL (      52 calls)
     sum_band     :     27.29s CPU     28.82s WALL (      52 calls)
     v_of_rho     :      0.03s CPU      0.04s WALL (      57 calls)
     mix_rho      :      0.05s CPU      0.05s WALL (      52 calls)

     Called by c_bands:
     init_us_2    :      2.38s CPU      2.75s WALL (   11600 calls)
     ccgdiagg     :    488.97s CPU    508.67s WALL (    5633 calls)
     wfcrot       :     84.31s CPU     91.69s WALL (    5733 calls)

     Called by *cgdiagg:
     h_psi        :    389.67s CPU    417.87s WALL ( 1319683 calls)
     cdiaghg      :      5.07s CPU      5.46s WALL (    5733 calls)

     Called by h_psi:
     add_vuspsi   :     28.98s CPU     40.47s WALL ( 1319683 calls)

     General routines
     calbec       :     94.58s CPU     94.58s WALL ( 2634633 calls)
     fft          :      0.04s CPU      0.05s WALL (     251 calls)
     fftw         :    308.89s CPU    312.85s WALL ( 3461200 calls)
     davcio       :      2.08s CPU     10.35s WALL (   16800 calls)
 
     Parallel routines
     fft_scatter  :    110.07s CPU    115.65s WALL ( 3461451 calls)
 
     PWSCF        : 10m13.98s CPU    11m14.32s WALL

 
   This run was terminated on:  22:53:59  22Mar2018            

=------------------------------------------------------------------------------=
   JOB DONE.
=------------------------------------------------------------------------------=
