
     Program PWSCF v.5.0.2 starts on 22Mar2018 at 16:18:50 

     This program is part of the open-source Quantum ESPRESSO suite
     for quantum simulation of materials; please cite
         "P. Giannozzi et al., J. Phys.:Condens. Matter 21 395502 (2009);
          URL http://www.quantum-espresso.org", 
     in publications or presentations arising from this work. More details at
     http://www.quantum-espresso.org/quote.php

     Parallel version (MPI), running on     4 processors
     R & G space division:  proc/nbgrp/npool/nimage =       4

     Current dimensions of program PWSCF are:
     Max number of different atomic species (ntypx) = 10
     Max number of k-points (npk) =  40000
     Max angular momentum in pseudopotentials (lmaxx) =  3
     Waiting for input...
     Reading input from standard input

     Subspace diagonalization in iterative solution of the eigenvalue problem:
     a serial algorithm will be used

 
     Parallelization info
     --------------------
     sticks:   dense  smooth     PW     G-vecs:    dense   smooth      PW
     Min         256     256     78                 5240     5240     876
     Max         257     257     79                 5243     5243     879
     Sum        1027    1027    313                20965    20965    3509
 


     bravais-lattice index     =            0
     lattice parameter (alat)  =       9.6483  a.u.
     unit-cell volume          =     613.3683 (a.u.)^3
     number of atoms/cell      =            6
     number of atomic types    =            2
     number of electrons       =        98.00
     number of Kohn-Sham states=           59
     kinetic-energy cutoff     =      40.0000  Ry
     charge density cutoff     =     160.0000  Ry
     convergence threshold     =      1.0E-04
     mixing beta               =       0.7000
     number of iterations used =            8  plain     mixing
     Exchange-correlation      = SLA-PZ-NOGX-NOGC ( 1 1 0 0 0)
     EXX-fraction              =        0.00
     nstep                     =           50


     celldm(1)=   9.648295  celldm(2)=   0.000000  celldm(3)=   0.000000
     celldm(4)=   0.000000  celldm(5)=   0.000000  celldm(6)=   0.000000

     crystal axes: (cart. coord. in units of alat)
               a(1) = (   1.000000   0.000000   0.000000 )  
               a(2) = (  -0.500000   0.866025   0.000000 )  
               a(3) = (   0.000000   0.000000   0.788568 )  

     reciprocal axes: (cart. coord. in units 2 pi/alat)
               b(1) = (  1.000000  0.577350  0.000000 )  
               b(2) = (  0.000000  1.154701  0.000000 )  
               b(3) = (  0.000000  0.000000  1.268122 )  


     PseudoPot. # 1 for Pr read from file:
     /home/cwx6513/pp.La/Pr.UPF
     MD5 check sum: 70e2b4b153859e92c8c91247dfc63203
     Pseudo is Norm-conserving, Zval = 13.0
     Generated in analytical, separable form
     Using radial grid of 1255 points,  6 beta functions with: 
                l(1) =   0
                l(2) =   0
                l(3) =   1
                l(4) =   1
                l(5) =   2
                l(6) =   3

     PseudoPot. # 2 for Eu read from file:
     /home/cwx6513/pp.La/Eu.UPF
     MD5 check sum: 5efdbbfc50c6a10138933a6429836ad2
     Pseudo is Norm-conserving, Zval = 17.0
     Generated in analytical, separable form
     Using radial grid of 1261 points,  6 beta functions with: 
                l(1) =   0
                l(2) =   0
                l(3) =   1
                l(4) =   1
                l(5) =   2
                l(6) =   3

     atomic species   valence    mass     pseudopotential
        Ca            13.00    40.07800     Pr( 1.00)
        Cu            17.00    63.54600     Eu( 1.00)

     24 Sym. Ops., with inversion, found



   Cartesian axes

     site n.     atom                  positions (alat units)
         1           Ca  tau(   1) = (   0.0000000   0.0000000   0.0000000  )
         2           Cu  tau(   2) = (  -0.0000005   0.5773506   0.0000000  )
         3           Cu  tau(   3) = (   0.5000005   0.2886748   0.0000000  )
         4           Cu  tau(   4) = (   0.5000000   0.0000000   0.3942838  )
         5           Cu  tau(   5) = (   0.2500000   0.4330127   0.3942838  )
         6           Cu  tau(   6) = (  -0.2500000   0.4330127   0.3942838  )

     number of k points=   110  gaussian smearing, width (Ry)=  0.1000

     Number of k-points >= 100: set verbosity='high' to print them.

     Dense  grid:    20965 G-vectors     FFT dimensions: (  40,  40,  32)

     Largest allocated arrays     est. size (Mb)     dimensions
        Kohn-Sham Wavefunctions         0.60 Mb     (    670,   59)
        NL pseudopotentials             1.23 Mb     (    670,  120)
        Each V/rho on FFT grid          0.20 Mb     (  12800)
        Each G-vector array             0.04 Mb     (   5243)
        G-vector shells                 0.04 Mb     (   5243)
     Largest temporary arrays     est. size (Mb)     dimensions
        Each subspace H/S matrix        0.05 Mb     (  59,  59)
        Each <psi_i|beta_j> matrix      0.11 Mb     (    120,   59)
        Arrays for rho mixing           1.56 Mb     (  12800,   8)

     Initial potential from superposition of free atoms
     Check: negative starting charge=   -0.000147

     starting charge   12.99054, renormalised to   98.00000

     negative rho (up, down):  0.111E-02 0.000E+00
     Starting wfc are   20 randomized atomic wfcs

     total cpu time spent up to now is        6.4 secs

     Self-consistent Calculation

     iteration #  1     ecut=    40.00 Ry     beta=0.70
     CG style diagonalization
     c_bands:  2 eigenvalues not converged
     c_bands:  2 eigenvalues not converged
     c_bands:  1 eigenvalues not converged
     c_bands:  1 eigenvalues not converged
     c_bands:  2 eigenvalues not converged
     c_bands:  3 eigenvalues not converged
     c_bands:  2 eigenvalues not converged
     c_bands:  2 eigenvalues not converged
     c_bands:  1 eigenvalues not converged
     c_bands:  3 eigenvalues not converged
     c_bands:  1 eigenvalues not converged
     c_bands:  1 eigenvalues not converged
     c_bands:  2 eigenvalues not converged
     c_bands:  1 eigenvalues not converged
     c_bands:  1 eigenvalues not converged
     c_bands:  3 eigenvalues not converged
     c_bands:  1 eigenvalues not converged
     c_bands:  1 eigenvalues not converged
     c_bands:  1 eigenvalues not converged
     c_bands:  1 eigenvalues not converged
     c_bands:  2 eigenvalues not converged
     c_bands:  1 eigenvalues not converged
     c_bands:  1 eigenvalues not converged
     c_bands:  1 eigenvalues not converged
     c_bands:  1 eigenvalues not converged
     c_bands:  1 eigenvalues not converged
     c_bands:  1 eigenvalues not converged
     c_bands:  1 eigenvalues not converged
     c_bands:  2 eigenvalues not converged
     c_bands:  1 eigenvalues not converged
     c_bands:  2 eigenvalues not converged
     c_bands:  2 eigenvalues not converged
     c_bands:  2 eigenvalues not converged
     c_bands:  1 eigenvalues not converged
     c_bands:  2 eigenvalues not converged
     c_bands:  1 eigenvalues not converged
     c_bands:  2 eigenvalues not converged
     c_bands:  1 eigenvalues not converged
     c_bands:  1 eigenvalues not converged
     c_bands:  1 eigenvalues not converged
     c_bands:  2 eigenvalues not converged
     c_bands:  2 eigenvalues not converged
     c_bands:  2 eigenvalues not converged
     c_bands:  3 eigenvalues not converged
     c_bands:  2 eigenvalues not converged
     c_bands:  1 eigenvalues not converged
     c_bands:  2 eigenvalues not converged
     c_bands:  1 eigenvalues not converged
     c_bands:  1 eigenvalues not converged
     c_bands:  1 eigenvalues not converged
     c_bands:  1 eigenvalues not converged
     c_bands:  1 eigenvalues not converged
     c_bands:  2 eigenvalues not converged
     c_bands:  1 eigenvalues not converged
     c_bands:  1 eigenvalues not converged
     c_bands:  1 eigenvalues not converged
     c_bands:  3 eigenvalues not converged
     c_bands:  2 eigenvalues not converged
     c_bands:  2 eigenvalues not converged
     c_bands:  1 eigenvalues not converged
     c_bands:  1 eigenvalues not converged
     c_bands:  2 eigenvalues not converged
     c_bands:  1 eigenvalues not converged
     c_bands:  1 eigenvalues not converged
     c_bands:  2 eigenvalues not converged
     c_bands:  2 eigenvalues not converged
     c_bands:  2 eigenvalues not converged
     c_bands:  2 eigenvalues not converged
     c_bands:  3 eigenvalues not converged
     c_bands:  2 eigenvalues not converged
     c_bands:  2 eigenvalues not converged
     c_bands:  1 eigenvalues not converged
     c_bands:  1 eigenvalues not converged
     c_bands:  2 eigenvalues not converged
     c_bands:  1 eigenvalues not converged
     c_bands:  2 eigenvalues not converged
     c_bands:  3 eigenvalues not converged
     c_bands:  1 eigenvalues not converged
     c_bands:  2 eigenvalues not converged
     c_bands:  1 eigenvalues not converged
     c_bands:  2 eigenvalues not converged
     c_bands:  2 eigenvalues not converged
     c_bands:  2 eigenvalues not converged
     c_bands:  1 eigenvalues not converged
     c_bands:  1 eigenvalues not converged
     c_bands:  2 eigenvalues not converged
     c_bands:  1 eigenvalues not converged
     c_bands:  1 eigenvalues not converged
     c_bands:  1 eigenvalues not converged
     c_bands:  1 eigenvalues not converged
     c_bands:  1 eigenvalues not converged
     c_bands:  1 eigenvalues not converged
     c_bands:  1 eigenvalues not converged
     c_bands:  1 eigenvalues not converged
     ethr =  1.00E-02,  avg # of iterations = 35.2

     negative rho (up, down):  0.333E-03 0.000E+00

     total cpu time spent up to now is      209.9 secs

     total energy              =    -946.41572105 Ry
     Harris-Foulkes estimate   =   -3798.35384419 Ry
     estimated scf accuracy    <    3268.40159808 Ry

     iteration #  2     ecut=    40.00 Ry     beta=0.70
     CG style diagonalization
     c_bands:  5 eigenvalues not converged
     ethr =  1.00E-02,  avg # of iterations = 17.2

     negative rho (up, down):  0.909E-04 0.000E+00

     total cpu time spent up to now is      313.8 secs

     total energy              =    -687.97212653 Ry
     Harris-Foulkes estimate   =   -1179.45511180 Ry
     estimated scf accuracy    <     580.17422549 Ry

     iteration #  3     ecut=    40.00 Ry     beta=0.70
     CG style diagonalization
     c_bands:  4 eigenvalues not converged
     c_bands:  4 eigenvalues not converged
     c_bands:  4 eigenvalues not converged
     c_bands:  2 eigenvalues not converged
     c_bands:  5 eigenvalues not converged
     c_bands:  4 eigenvalues not converged
     c_bands:  1 eigenvalues not converged
     c_bands:  3 eigenvalues not converged
     c_bands:  4 eigenvalues not converged
     c_bands:  4 eigenvalues not converged
     c_bands:  5 eigenvalues not converged
     c_bands:  4 eigenvalues not converged
     c_bands:  1 eigenvalues not converged
     c_bands:  3 eigenvalues not converged
     c_bands:  4 eigenvalues not converged
     c_bands:  3 eigenvalues not converged
     c_bands:  5 eigenvalues not converged
     c_bands:  4 eigenvalues not converged
     c_bands:  2 eigenvalues not converged
     c_bands:  4 eigenvalues not converged
     c_bands:  2 eigenvalues not converged
     c_bands:  3 eigenvalues not converged
     c_bands:  1 eigenvalues not converged
     c_bands:  5 eigenvalues not converged
     c_bands:  5 eigenvalues not converged
     c_bands:  2 eigenvalues not converged
     c_bands:  3 eigenvalues not converged
     c_bands:  3 eigenvalues not converged
     c_bands:  4 eigenvalues not converged
     c_bands:  3 eigenvalues not converged
     c_bands:  2 eigenvalues not converged
     c_bands:  1 eigenvalues not converged
     c_bands:  1 eigenvalues not converged
     c_bands:  2 eigenvalues not converged
     c_bands:  2 eigenvalues not converged
     c_bands:  3 eigenvalues not converged
     c_bands:  4 eigenvalues not converged
     c_bands:  5 eigenvalues not converged
     c_bands:  2 eigenvalues not converged
     c_bands:  3 eigenvalues not converged
     c_bands:  3 eigenvalues not converged
     c_bands:  5 eigenvalues not converged
     c_bands:  1 eigenvalues not converged
     c_bands:  1 eigenvalues not converged
     c_bands:  2 eigenvalues not converged
     c_bands:  5 eigenvalues not converged
     c_bands:  4 eigenvalues not converged
     c_bands:  3 eigenvalues not converged
     c_bands:  3 eigenvalues not converged
     c_bands:  4 eigenvalues not converged
     c_bands:  1 eigenvalues not converged
     c_bands:  1 eigenvalues not converged
     c_bands:  2 eigenvalues not converged
     c_bands:  3 eigenvalues not converged
     c_bands:  5 eigenvalues not converged
     c_bands:  3 eigenvalues not converged
     c_bands:  1 eigenvalues not converged
     c_bands:  1 eigenvalues not converged
     c_bands:  4 eigenvalues not converged
     c_bands:  1 eigenvalues not converged
     c_bands:  1 eigenvalues not converged
     c_bands:  1 eigenvalues not converged
     c_bands:  2 eigenvalues not converged
     c_bands:  1 eigenvalues not converged
     c_bands:  3 eigenvalues not converged
     c_bands:  1 eigenvalues not converged
     c_bands:  5 eigenvalues not converged
     c_bands:  2 eigenvalues not converged
     c_bands:  3 eigenvalues not converged
     c_bands:  5 eigenvalues not converged
     c_bands:  3 eigenvalues not converged
     c_bands:  3 eigenvalues not converged
     c_bands:  2 eigenvalues not converged
     c_bands:  3 eigenvalues not converged
     c_bands:  2 eigenvalues not converged
     c_bands:  2 eigenvalues not converged
     c_bands:  1 eigenvalues not converged
     c_bands:  4 eigenvalues not converged
     c_bands:  4 eigenvalues not converged
     c_bands:  4 eigenvalues not converged
     c_bands:  3 eigenvalues not converged
     c_bands:  4 eigenvalues not converged
     c_bands:  1 eigenvalues not converged
     c_bands:  2 eigenvalues not converged
     c_bands:  3 eigenvalues not converged
     c_bands:  4 eigenvalues not converged
     c_bands:  4 eigenvalues not converged
     c_bands:  3 eigenvalues not converged
     c_bands:  2 eigenvalues not converged
     c_bands:  2 eigenvalues not converged
     c_bands:  1 eigenvalues not converged
     c_bands:  4 eigenvalues not converged
     c_bands:  3 eigenvalues not converged
     c_bands:  4 eigenvalues not converged
     c_bands:  2 eigenvalues not converged
     c_bands:  2 eigenvalues not converged
     c_bands:  2 eigenvalues not converged
     ethr =  1.00E-02,  avg # of iterations = 13.8

     negative rho (up, down):  0.457E-04 0.000E+00

     total cpu time spent up to now is      398.9 secs

     total energy              =    -904.59996436 Ry
     Harris-Foulkes estimate   =   -1228.30931933 Ry
     estimated scf accuracy    <     643.79228610 Ry

     iteration #  4     ecut=    40.00 Ry     beta=0.70
     CG style diagonalization
     c_bands:  1 eigenvalues not converged
     c_bands:  1 eigenvalues not converged
     c_bands:  1 eigenvalues not converged
     c_bands:  1 eigenvalues not converged
     c_bands:  2 eigenvalues not converged
     c_bands:  1 eigenvalues not converged
     c_bands:  2 eigenvalues not converged
     c_bands:  1 eigenvalues not converged
     c_bands:  1 eigenvalues not converged
     c_bands:  1 eigenvalues not converged
     c_bands:  1 eigenvalues not converged
     c_bands:  1 eigenvalues not converged
     c_bands:  1 eigenvalues not converged
     c_bands:  1 eigenvalues not converged
     c_bands:  1 eigenvalues not converged
     c_bands:  1 eigenvalues not converged
     c_bands:  1 eigenvalues not converged
     c_bands:  1 eigenvalues not converged
     c_bands:  1 eigenvalues not converged
     ethr =  1.00E-02,  avg # of iterations = 10.2

     total cpu time spent up to now is      462.7 secs

     total energy              =    -960.92485100 Ry
     Harris-Foulkes estimate   =    -976.52802263 Ry
     estimated scf accuracy    <      33.62793508 Ry

     iteration #  5     ecut=    40.00 Ry     beta=0.70
     CG style diagonalization
     ethr =  1.00E-02,  avg # of iterations =  4.3

     total cpu time spent up to now is      488.9 secs

     total energy              =    -966.31487033 Ry
     Harris-Foulkes estimate   =    -966.95356402 Ry
     estimated scf accuracy    <       0.77144002 Ry

     iteration #  6     ecut=    40.00 Ry     beta=0.70
     CG style diagonalization
     c_bands:  2 eigenvalues not converged
     c_bands:  1 eigenvalues not converged
     c_bands:  1 eigenvalues not converged
     c_bands:  2 eigenvalues not converged
     c_bands:  1 eigenvalues not converged
     c_bands:  1 eigenvalues not converged
     ethr =  7.87E-04,  avg # of iterations =  5.4

     total cpu time spent up to now is      522.7 secs

     total energy              =    -965.11593341 Ry
     Harris-Foulkes estimate   =    -968.08483667 Ry
     estimated scf accuracy    <       7.04668764 Ry

     iteration #  7     ecut=    40.00 Ry     beta=0.70
     CG style diagonalization
     c_bands:  1 eigenvalues not converged
     ethr =  7.87E-04,  avg # of iterations =  4.2

     total cpu time spent up to now is      549.7 secs

     total energy              =    -966.72545647 Ry
     Harris-Foulkes estimate   =    -967.40290999 Ry
     estimated scf accuracy    <       2.31605378 Ry

     iteration #  8     ecut=    40.00 Ry     beta=0.70
     CG style diagonalization
     ethr =  7.87E-04,  avg # of iterations =  3.4

     total cpu time spent up to now is      571.8 secs

     total energy              =    -966.90653651 Ry
     Harris-Foulkes estimate   =    -966.97968283 Ry
     estimated scf accuracy    <       0.22340443 Ry

     iteration #  9     ecut=    40.00 Ry     beta=0.70
     CG style diagonalization
     ethr =  2.28E-04,  avg # of iterations =  3.4

     total cpu time spent up to now is      594.6 secs

     total energy              =    -966.93541354 Ry
     Harris-Foulkes estimate   =    -966.94453043 Ry
     estimated scf accuracy    <       0.02446097 Ry

     iteration # 10     ecut=    40.00 Ry     beta=0.70
     CG style diagonalization
     c_bands:  1 eigenvalues not converged
     c_bands:  1 eigenvalues not converged
     c_bands:  1 eigenvalues not converged
     c_bands:  1 eigenvalues not converged
     c_bands:  1 eigenvalues not converged
     ethr =  2.50E-05,  avg # of iterations =  3.7

     total cpu time spent up to now is      617.7 secs

     total energy              =    -966.93988586 Ry
     Harris-Foulkes estimate   =    -966.94056472 Ry
     estimated scf accuracy    <       0.00145505 Ry

     iteration # 11     ecut=    40.00 Ry     beta=0.70
     CG style diagonalization
     c_bands:  1 eigenvalues not converged
     c_bands:  1 eigenvalues not converged
     c_bands:  1 eigenvalues not converged
     c_bands:  1 eigenvalues not converged
     c_bands:  1 eigenvalues not converged
     c_bands:  1 eigenvalues not converged
     c_bands:  1 eigenvalues not converged
     c_bands:  1 eigenvalues not converged
     c_bands:  1 eigenvalues not converged
     c_bands:  1 eigenvalues not converged
     c_bands:  1 eigenvalues not converged
     ethr =  1.48E-06,  avg # of iterations =  4.5

     total cpu time spent up to now is      645.5 secs

     total energy              =    -966.94055139 Ry
     Harris-Foulkes estimate   =    -966.94067047 Ry
     estimated scf accuracy    <       0.00038303 Ry

     iteration # 12     ecut=    40.00 Ry     beta=0.70
     CG style diagonalization
     ethr =  3.91E-07,  avg # of iterations =  3.4

     total cpu time spent up to now is      666.7 secs

     End of self-consistent calculation

     Number of k-points >= 100: set verbosity='high' to print the bands.

     the Fermi energy is    32.9371 ev

!    total energy              =    -966.94061542 Ry
     Harris-Foulkes estimate   =    -966.94062692 Ry
     estimated scf accuracy    <       0.00001251 Ry

     The total energy is the sum of the following terms:

     one-electron contribution =     -29.79475358 Ry
     hartree contribution      =     119.47100691 Ry
     xc contribution           =    -106.07841293 Ry
     ewald contribution        =    -950.29280025 Ry
     smearing contrib. (-TS)   =      -0.24565558 Ry

     convergence has been achieved in  12 iterations

     Forces acting on atoms (Ry/au):

     atom    1 type  1   force =     0.00000000    0.00000000    0.00000000
     atom    2 type  2   force =     0.00000000    0.00000000    0.00000000
     atom    3 type  2   force =     0.00000000    0.00000000    0.00000000
     atom    4 type  2   force =     0.00000000    0.00000000    0.00000000
     atom    5 type  2   force =     0.00000000    0.00000000    0.00000000
     atom    6 type  2   force =     0.00000000    0.00000000    0.00000000

     Total force =     0.000000     Total SCF correction =     0.000000


     entering subroutine stress ...

          total   stress  (Ry/bohr**3)                   (kbar)     P= 1731.88
   0.00979575   0.00000000   0.00000000       1441.00      0.00      0.00
   0.00000000   0.00979575   0.00000000          0.00   1441.00      0.00
   0.00000000   0.00000000   0.01572783          0.00      0.00   2313.64


     BFGS Geometry Optimization

     number of scf cycles    =   1
     number of bfgs steps    =   0

     enthalpy new            =    -966.9406154239 Ry

     new trust radius        =       0.5000000000 bohr
     new conv_thr            =       0.0001000000 Ry

     new unit-cell volume =    762.86430 a.u.^3 (   113.04483 Ang^3 )

CELL_PARAMETERS (alat=  9.64829493)
   1.062870691   0.000000000   0.000000000
  -0.531435345   0.920473019   0.000000000
   0.000000000   0.000000000   0.868168629

ATOMIC_POSITIONS (crystal)
Ca       0.000000000   0.000000000   0.000000000
Cu       0.333333000   0.666667000   0.000000000
Cu       0.666667000   0.333333000   0.000000000
Cu       0.500000000   0.000000000   0.500000000
Cu       0.500000000   0.500000000   0.500000000
Cu       0.000000000   0.500000000   0.500000000



     Writing output data file Prototype-La-hP6-CaCu5.save
     Check: negative starting charge=   -0.000147
     NEW-OLD atomic charge density approx. for the potential
     NEW k-points: (use verbosity='high' to print them)
     Check: negative starting charge=   -0.001068

     negative rho (up, down):  0.946E-03 0.000E+00
     extrapolated charge  100.54571, renormalised to   98.00000

     total cpu time spent up to now is      673.1 secs

     Self-consistent Calculation

     iteration #  1     ecut=    40.00 Ry     beta=0.70
     CG style diagonalization
     c_bands:  5 eigenvalues not converged
     c_bands:  3 eigenvalues not converged
     c_bands:  2 eigenvalues not converged
     c_bands:  1 eigenvalues not converged
     c_bands:  1 eigenvalues not converged
     c_bands:  1 eigenvalues not converged
     c_bands:  1 eigenvalues not converged
     c_bands:  1 eigenvalues not converged
     c_bands:  1 eigenvalues not converged
     c_bands:  1 eigenvalues not converged
     c_bands:  1 eigenvalues not converged
     c_bands:  1 eigenvalues not converged
     c_bands:  2 eigenvalues not converged
     c_bands:  1 eigenvalues not converged
     c_bands:  1 eigenvalues not converged
     c_bands:  3 eigenvalues not converged
     c_bands:  2 eigenvalues not converged
     c_bands:  3 eigenvalues not converged
     c_bands:  2 eigenvalues not converged
     c_bands:  2 eigenvalues not converged
     c_bands:  2 eigenvalues not converged
     c_bands:  1 eigenvalues not converged
     c_bands:  2 eigenvalues not converged
     c_bands:  2 eigenvalues not converged
     c_bands:  1 eigenvalues not converged
     c_bands:  1 eigenvalues not converged
     c_bands:  1 eigenvalues not converged
     c_bands:  1 eigenvalues not converged
     c_bands:  1 eigenvalues not converged
     c_bands:  2 eigenvalues not converged
     c_bands:  1 eigenvalues not converged
     c_bands:  1 eigenvalues not converged
     c_bands:  2 eigenvalues not converged
     c_bands:  3 eigenvalues not converged
     c_bands:  1 eigenvalues not converged
     c_bands:  1 eigenvalues not converged
     c_bands:  2 eigenvalues not converged
     c_bands:  1 eigenvalues not converged
     c_bands:  2 eigenvalues not converged
     c_bands:  1 eigenvalues not converged
     c_bands:  2 eigenvalues not converged
     c_bands:  1 eigenvalues not converged
     c_bands:  1 eigenvalues not converged
     c_bands:  1 eigenvalues not converged
     c_bands:  1 eigenvalues not converged
     c_bands:  2 eigenvalues not converged
     c_bands:  2 eigenvalues not converged
     c_bands:  1 eigenvalues not converged
     c_bands:  2 eigenvalues not converged
     c_bands:  2 eigenvalues not converged
     c_bands:  2 eigenvalues not converged
     c_bands:  1 eigenvalues not converged
     c_bands:  1 eigenvalues not converged
     c_bands:  1 eigenvalues not converged
     c_bands:  1 eigenvalues not converged
     c_bands:  1 eigenvalues not converged
     c_bands:  2 eigenvalues not converged
     c_bands:  2 eigenvalues not converged
     c_bands:  2 eigenvalues not converged
     c_bands:  1 eigenvalues not converged
     c_bands:  3 eigenvalues not converged
     c_bands:  2 eigenvalues not converged
     c_bands:  3 eigenvalues not converged
     c_bands:  2 eigenvalues not converged
     c_bands:  2 eigenvalues not converged
     c_bands:  2 eigenvalues not converged
     c_bands:  1 eigenvalues not converged
     c_bands:  2 eigenvalues not converged
     c_bands:  1 eigenvalues not converged
     c_bands:  1 eigenvalues not converged
     c_bands:  1 eigenvalues not converged
     c_bands:  5 eigenvalues not converged
     c_bands:  1 eigenvalues not converged
     c_bands:  1 eigenvalues not converged
     c_bands:  2 eigenvalues not converged
     c_bands:  1 eigenvalues not converged
     c_bands:  2 eigenvalues not converged
     c_bands:  1 eigenvalues not converged
     c_bands:  1 eigenvalues not converged
     c_bands:  2 eigenvalues not converged
     c_bands:  1 eigenvalues not converged
     c_bands:  2 eigenvalues not converged
     c_bands:  1 eigenvalues not converged
     c_bands:  1 eigenvalues not converged
     c_bands:  1 eigenvalues not converged
     c_bands:  1 eigenvalues not converged
     ethr =  1.00E-06,  avg # of iterations = 22.6

     negative rho (up, down):  0.276E-03 0.000E+00

     total cpu time spent up to now is      806.2 secs

     total energy              =    -951.56652823 Ry
     Harris-Foulkes estimate   =    -977.20181740 Ry
     estimated scf accuracy    <      35.76721892 Ry

     iteration #  2     ecut=    40.00 Ry     beta=0.70
     CG style diagonalization
     c_bands:  1 eigenvalues not converged
     c_bands:  1 eigenvalues not converged
     ethr =  1.00E-02,  avg # of iterations =  7.2

     negative rho (up, down):  0.201E-03 0.000E+00

     total cpu time spent up to now is      850.3 secs

     total energy              =    -935.40990803 Ry
     Harris-Foulkes estimate   =    -989.01809453 Ry
     estimated scf accuracy    <     140.63547914 Ry

     iteration #  3     ecut=    40.00 Ry     beta=0.70
     CG style diagonalization
     c_bands:  1 eigenvalues not converged
     c_bands:  1 eigenvalues not converged
     c_bands:  1 eigenvalues not converged
     c_bands:  1 eigenvalues not converged
     c_bands:  1 eigenvalues not converged
     c_bands:  1 eigenvalues not converged
     c_bands:  1 eigenvalues not converged
     c_bands:  1 eigenvalues not converged
     c_bands:  1 eigenvalues not converged
     c_bands:  1 eigenvalues not converged
     ethr =  1.00E-02,  avg # of iterations =  6.6

     negative rho (up, down):  0.808E-04 0.000E+00

     total cpu time spent up to now is      890.2 secs

     total energy              =    -967.70463025 Ry
     Harris-Foulkes estimate   =    -970.00191447 Ry
     estimated scf accuracy    <       7.96089650 Ry

     iteration #  4     ecut=    40.00 Ry     beta=0.70
     CG style diagonalization
     ethr =  8.12E-03,  avg # of iterations =  3.1

     negative rho (up, down):  0.640E-04 0.000E+00

     total cpu time spent up to now is      908.5 secs

     total energy              =    -967.98093086 Ry
     Harris-Foulkes estimate   =    -968.29922735 Ry
     estimated scf accuracy    <       3.29496064 Ry

     iteration #  5     ecut=    40.00 Ry     beta=0.70
     CG style diagonalization
     ethr =  3.36E-03,  avg # of iterations =  3.1

     negative rho (up, down):  0.529E-04 0.000E+00

     total cpu time spent up to now is      927.9 secs

     total energy              =    -967.75857949 Ry
     Harris-Foulkes estimate   =    -968.07160201 Ry
     estimated scf accuracy    <       2.34765139 Ry

     iteration #  6     ecut=    40.00 Ry     beta=0.70
     CG style diagonalization
     ethr =  2.40E-03,  avg # of iterations =  3.1

     negative rho (up, down):  0.437E-05 0.000E+00

     total cpu time spent up to now is      945.5 secs

     total energy              =    -967.47806106 Ry
     Harris-Foulkes estimate   =    -967.83505087 Ry
     estimated scf accuracy    <       1.18535785 Ry

     iteration #  7     ecut=    40.00 Ry     beta=0.70
     CG style diagonalization
     ethr =  1.21E-03,  avg # of iterations =  3.6

     total cpu time spent up to now is      967.5 secs

     total energy              =    -967.71008611 Ry
     Harris-Foulkes estimate   =    -967.70345518 Ry
     estimated scf accuracy    <       0.01025388 Ry

     iteration #  8     ecut=    40.00 Ry     beta=0.70
     CG style diagonalization
     c_bands:  1 eigenvalues not converged
     c_bands:  1 eigenvalues not converged
     c_bands:  1 eigenvalues not converged
     c_bands:  1 eigenvalues not converged
     c_bands:  1 eigenvalues not converged
     c_bands:  2 eigenvalues not converged
     c_bands:  1 eigenvalues not converged
     c_bands:  1 eigenvalues not converged
     c_bands:  2 eigenvalues not converged
     c_bands:  2 eigenvalues not converged
     c_bands:  1 eigenvalues not converged
     c_bands:  1 eigenvalues not converged
     c_bands:  2 eigenvalues not converged
     c_bands:  2 eigenvalues not converged
     c_bands:  2 eigenvalues not converged
     c_bands:  1 eigenvalues not converged
     c_bands:  1 eigenvalues not converged
     c_bands:  2 eigenvalues not converged
     c_bands:  1 eigenvalues not converged
     c_bands:  1 eigenvalues not converged
     c_bands:  1 eigenvalues not converged
     c_bands:  3 eigenvalues not converged
     c_bands:  1 eigenvalues not converged
     c_bands:  1 eigenvalues not converged
     c_bands:  3 eigenvalues not converged
     c_bands:  1 eigenvalues not converged
     c_bands:  2 eigenvalues not converged
     c_bands:  1 eigenvalues not converged
     c_bands:  1 eigenvalues not converged
     c_bands:  1 eigenvalues not converged
     c_bands:  3 eigenvalues not converged
     c_bands:  1 eigenvalues not converged
     c_bands:  2 eigenvalues not converged
     c_bands:  4 eigenvalues not converged
     c_bands:  1 eigenvalues not converged
     c_bands:  2 eigenvalues not converged
     ethr =  1.05E-05,  avg # of iterations =  5.5

     total cpu time spent up to now is     1003.2 secs

     total energy              =    -967.77093203 Ry
     Harris-Foulkes estimate   =    -967.78232108 Ry
     estimated scf accuracy    <       0.52099668 Ry

     iteration #  9     ecut=    40.00 Ry     beta=0.70
     CG style diagonalization
     c_bands:  1 eigenvalues not converged
     c_bands:  1 eigenvalues not converged
     ethr =  1.05E-05,  avg # of iterations =  3.0

     total cpu time spent up to now is     1023.3 secs

     total energy              =    -967.66516024 Ry
     Harris-Foulkes estimate   =    -967.77142321 Ry
     estimated scf accuracy    <       0.44387785 Ry

     iteration # 10     ecut=    40.00 Ry     beta=0.70
     CG style diagonalization
     c_bands:  1 eigenvalues not converged
     ethr =  1.05E-05,  avg # of iterations =  4.2

     total cpu time spent up to now is     1050.7 secs

     total energy              =    -967.71939940 Ry
     Harris-Foulkes estimate   =    -967.71899474 Ry
     estimated scf accuracy    <       0.00186839 Ry

     iteration # 11     ecut=    40.00 Ry     beta=0.70
     CG style diagonalization
     c_bands:  1 eigenvalues not converged
     c_bands:  1 eigenvalues not converged
     c_bands:  1 eigenvalues not converged
     c_bands:  1 eigenvalues not converged
     c_bands:  1 eigenvalues not converged
     c_bands:  1 eigenvalues not converged
     c_bands:  1 eigenvalues not converged
     c_bands:  1 eigenvalues not converged
     c_bands:  1 eigenvalues not converged
     c_bands:  1 eigenvalues not converged
     ethr =  1.91E-06,  avg # of iterations =  3.7

     total cpu time spent up to now is     1076.6 secs

     total energy              =    -967.71796489 Ry
     Harris-Foulkes estimate   =    -967.71996825 Ry
     estimated scf accuracy    <       0.00881995 Ry

     iteration # 12     ecut=    40.00 Ry     beta=0.70
     CG style diagonalization
     ethr =  1.91E-06,  avg # of iterations =  3.3

     total cpu time spent up to now is     1097.0 secs

     total energy              =    -967.71867600 Ry
     Harris-Foulkes estimate   =    -967.71874145 Ry
     estimated scf accuracy    <       0.00018333 Ry

     iteration # 13     ecut=    40.00 Ry     beta=0.70
     CG style diagonalization
     ethr =  1.87E-07,  avg # of iterations =  3.7

     total cpu time spent up to now is     1121.4 secs

     End of self-consistent calculation

     Number of k-points >= 100: set verbosity='high' to print the bands.

     the Fermi energy is    25.4108 ev

!    total energy              =    -967.71869115 Ry
     Harris-Foulkes estimate   =    -967.71874355 Ry
     estimated scf accuracy    <       0.00005651 Ry

     The total energy is the sum of the following terms:

     one-electron contribution =    -116.29594769 Ry
     hartree contribution      =     138.19058750 Ry
     xc contribution           =    -103.46396353 Ry
     ewald contribution        =    -885.81272810 Ry
     smearing contrib. (-TS)   =      -0.33663933 Ry

     convergence has been achieved in  13 iterations

     Forces acting on atoms (Ry/au):

     atom    1 type  1   force =     0.00000000    0.00000000    0.00000000
     atom    2 type  2   force =     0.00000000    0.00000000    0.00000000
     atom    3 type  2   force =     0.00000000    0.00000000    0.00000000
     atom    4 type  2   force =     0.00000000    0.00000000    0.00000000
     atom    5 type  2   force =     0.00000000    0.00000000    0.00000000
     atom    6 type  2   force =     0.00000000    0.00000000    0.00000000

     Total force =     0.000000     Total SCF correction =     0.000000


     entering subroutine stress ...

          total   stress  (Ry/bohr**3)                   (kbar)     P=  -49.04
  -0.00078824   0.00000000   0.00000000       -115.95      0.00      0.00
   0.00000000  -0.00078824   0.00000000          0.00   -115.95      0.00
   0.00000000   0.00000000   0.00057633          0.00      0.00     84.78


     number of scf cycles    =   2
     number of bfgs steps    =   1

     enthalpy old            =    -966.9406154239 Ry
     enthalpy new            =    -967.7186911541 Ry

     CASE: enthalpy_new < enthalpy_old

     small trust_radius: resetting bfgs history

     new trust radius        =       0.1088558357 bohr
     new conv_thr            =       0.0000010000 Ry

     new unit-cell volume =    743.65709 a.u.^3 (   110.19861 Ang^3 )

CELL_PARAMETERS (alat=  9.64829493)
   1.041925780   0.000000000   0.000000000
  -0.520962890   0.902334195   0.000000000
   0.000000000   0.000000000   0.880677324

ATOMIC_POSITIONS (crystal)
Ca       0.000000000   0.000000000   0.000000000
Cu       0.333333000   0.666667000   0.000000000
Cu       0.666667000   0.333333000   0.000000000
Cu       0.500000000   0.000000000   0.500000000
Cu       0.500000000   0.500000000   0.500000000
Cu       0.000000000   0.500000000   0.500000000



     Writing output data file Prototype-La-hP6-CaCu5.save
     Check: negative starting charge=   -0.001068
     NEW-OLD atomic charge density approx. for the potential
     NEW k-points: (use verbosity='high' to print them)
     Check: negative starting charge=   -0.000941

     negative rho (up, down):  0.214E-03 0.000E+00
     extrapolated charge   97.66448, renormalised to   98.00000

     total cpu time spent up to now is     1128.4 secs

     Self-consistent Calculation

     iteration #  1     ecut=    40.00 Ry     beta=0.70
     CG style diagonalization
     c_bands:  2 eigenvalues not converged
     c_bands:  2 eigenvalues not converged
     c_bands:  1 eigenvalues not converged
     c_bands:  5 eigenvalues not converged
     c_bands:  3 eigenvalues not converged
     c_bands:  2 eigenvalues not converged
     c_bands:  1 eigenvalues not converged
     c_bands:  1 eigenvalues not converged
     c_bands:  2 eigenvalues not converged
     c_bands:  3 eigenvalues not converged
     c_bands:  2 eigenvalues not converged
     c_bands:  1 eigenvalues not converged
     c_bands:  1 eigenvalues not converged
     c_bands:  1 eigenvalues not converged
     c_bands:  2 eigenvalues not converged
     c_bands:  2 eigenvalues not converged
     c_bands:  4 eigenvalues not converged
     c_bands:  1 eigenvalues not converged
     c_bands:  2 eigenvalues not converged
     c_bands:  3 eigenvalues not converged
     c_bands:  5 eigenvalues not converged
     c_bands:  4 eigenvalues not converged
     c_bands:  4 eigenvalues not converged
     c_bands:  1 eigenvalues not converged
     c_bands:  5 eigenvalues not converged
     c_bands:  1 eigenvalues not converged
     c_bands:  2 eigenvalues not converged
     c_bands:  3 eigenvalues not converged
     c_bands:  1 eigenvalues not converged
     c_bands:  4 eigenvalues not converged
     c_bands:  1 eigenvalues not converged
     c_bands:  2 eigenvalues not converged
     c_bands:  2 eigenvalues not converged
     c_bands:  1 eigenvalues not converged
     c_bands:  2 eigenvalues not converged
     c_bands:  1 eigenvalues not converged
     c_bands:  2 eigenvalues not converged
     c_bands:  2 eigenvalues not converged
     c_bands:  1 eigenvalues not converged
     c_bands:  1 eigenvalues not converged
     c_bands:  4 eigenvalues not converged
     c_bands:  5 eigenvalues not converged
     c_bands:  2 eigenvalues not converged
     c_bands:  2 eigenvalues not converged
     c_bands:  3 eigenvalues not converged
     c_bands:  3 eigenvalues not converged
     c_bands:  1 eigenvalues not converged
     c_bands:  2 eigenvalues not converged
     c_bands:  5 eigenvalues not converged
     c_bands:  1 eigenvalues not converged
     c_bands:  1 eigenvalues not converged
     c_bands:  1 eigenvalues not converged
     c_bands:  3 eigenvalues not converged
     c_bands:  4 eigenvalues not converged
     c_bands:  1 eigenvalues not converged
     c_bands:  1 eigenvalues not converged
     c_bands:  1 eigenvalues not converged
     c_bands:  3 eigenvalues not converged
     c_bands:  4 eigenvalues not converged
     c_bands:  1 eigenvalues not converged
     c_bands:  1 eigenvalues not converged
     c_bands:  1 eigenvalues not converged
     c_bands:  5 eigenvalues not converged
     c_bands:  5 eigenvalues not converged
     c_bands:  2 eigenvalues not converged
     c_bands:  1 eigenvalues not converged
     c_bands:  1 eigenvalues not converged
     c_bands:  1 eigenvalues not converged
     ethr =  1.00E-06,  avg # of iterations =  9.9

     total cpu time spent up to now is     1190.4 secs

     total energy              =    -965.21120275 Ry
     Harris-Foulkes estimate   =    -968.73697425 Ry
     estimated scf accuracy    <       3.68714935 Ry

     iteration #  2     ecut=    40.00 Ry     beta=0.70
     CG style diagonalization
     ethr =  3.76E-03,  avg # of iterations =  4.1

     total cpu time spent up to now is     1217.0 secs

     total energy              =    -966.89652884 Ry
     Harris-Foulkes estimate   =    -971.71435478 Ry
     estimated scf accuracy    <      11.73602174 Ry

     iteration #  3     ecut=    40.00 Ry     beta=0.70
     CG style diagonalization
     ethr =  3.76E-03,  avg # of iterations =  3.7

     total cpu time spent up to now is     1240.6 secs

     total energy              =    -967.61633243 Ry
     Harris-Foulkes estimate   =    -967.91350385 Ry
     estimated scf accuracy    <       1.59612817 Ry

     iteration #  4     ecut=    40.00 Ry     beta=0.70
     CG style diagonalization
     ethr =  1.63E-03,  avg # of iterations =  3.1

     total cpu time spent up to now is     1260.7 secs

     total energy              =    -967.67085551 Ry
     Harris-Foulkes estimate   =    -967.74271086 Ry
     estimated scf accuracy    <       0.32591303 Ry

     iteration #  5     ecut=    40.00 Ry     beta=0.70
     CG style diagonalization
     ethr =  3.33E-04,  avg # of iterations =  3.6

     total cpu time spent up to now is     1284.5 secs

     total energy              =    -967.71624256 Ry
     Harris-Foulkes estimate   =    -967.72761520 Ry
     estimated scf accuracy    <       0.03804027 Ry

     iteration #  6     ecut=    40.00 Ry     beta=0.70
     CG style diagonalization
     ethr =  3.88E-05,  avg # of iterations =  3.8

     total cpu time spent up to now is     1308.4 secs

     total energy              =    -967.72520494 Ry
     Harris-Foulkes estimate   =    -967.72891436 Ry
     estimated scf accuracy    <       0.01330048 Ry

     iteration #  7     ecut=    40.00 Ry     beta=0.70
     CG style diagonalization
     c_bands:  1 eigenvalues not converged
     ethr =  1.36E-05,  avg # of iterations =  3.2

     total cpu time spent up to now is     1329.2 secs

     total energy              =    -967.72711227 Ry
     Harris-Foulkes estimate   =    -967.72733715 Ry
     estimated scf accuracy    <       0.00047102 Ry

     iteration #  8     ecut=    40.00 Ry     beta=0.70
     CG style diagonalization
     c_bands:  1 eigenvalues not converged
     c_bands:  1 eigenvalues not converged
     ethr =  4.81E-07,  avg # of iterations =  4.3

     total cpu time spent up to now is     1354.1 secs

     total energy              =    -967.72739325 Ry
     Harris-Foulkes estimate   =    -967.72741122 Ry
     estimated scf accuracy    <       0.00009881 Ry

     iteration #  9     ecut=    40.00 Ry     beta=0.70
     CG style diagonalization
     ethr =  1.01E-07,  avg # of iterations =  3.1

     total cpu time spent up to now is     1370.5 secs

     total energy              =    -967.72738528 Ry
     Harris-Foulkes estimate   =    -967.72739996 Ry
     estimated scf accuracy    <       0.00004230 Ry

     iteration # 10     ecut=    40.00 Ry     beta=0.70
     CG style diagonalization
     ethr =  4.32E-08,  avg # of iterations =  3.5

     total cpu time spent up to now is     1388.8 secs

     total energy              =    -967.72739336 Ry
     Harris-Foulkes estimate   =    -967.72739380 Ry
     estimated scf accuracy    <       0.00000140 Ry

     iteration # 11     ecut=    40.00 Ry     beta=0.70
     CG style diagonalization
     ethr =  1.43E-09,  avg # of iterations =  4.5

     total cpu time spent up to now is     1413.8 secs

     End of self-consistent calculation

     Number of k-points >= 100: set verbosity='high' to print the bands.

     the Fermi energy is    26.1979 ev

!    total energy              =    -967.72739359 Ry
     Harris-Foulkes estimate   =    -967.72739430 Ry
     estimated scf accuracy    <       0.00000081 Ry

     The total energy is the sum of the following terms:

     one-electron contribution =    -102.38990674 Ry
     hartree contribution      =     133.92170239 Ry
     xc contribution           =    -103.71216591 Ry
     ewald contribution        =    -895.22145039 Ry
     smearing contrib. (-TS)   =      -0.32557294 Ry

     convergence has been achieved in  11 iterations

     Forces acting on atoms (Ry/au):

     atom    1 type  1   force =     0.00000000    0.00000000    0.00000000
     atom    2 type  2   force =     0.00000000    0.00000000    0.00000000
     atom    3 type  2   force =     0.00000000    0.00000000    0.00000000
     atom    4 type  2   force =     0.00000000    0.00000000    0.00000000
     atom    5 type  2   force =     0.00000000    0.00000000    0.00000000
     atom    6 type  2   force =     0.00000000    0.00000000    0.00000000

     Total force =     0.000000     Total SCF correction =     0.000000


     entering subroutine stress ...

          total   stress  (Ry/bohr**3)                   (kbar)     P=   85.02
   0.00061243   0.00000000   0.00000000         90.09      0.00      0.00
   0.00000000   0.00061243   0.00000000          0.00     90.09      0.00
   0.00000000   0.00000000   0.00050891          0.00      0.00     74.86


     number of scf cycles    =   3
     number of bfgs steps    =   2

     enthalpy old            =    -967.7186911541 Ry
     enthalpy new            =    -967.7273935851 Ry

     CASE: enthalpy_new < enthalpy_old

     Message from routine bfgs:
     history already reset at previous step: stopping
     small trust_radius: resetting bfgs history

     new trust radius        =       0.0835050457 bohr
     new conv_thr            =       0.0000010000 Ry

     new unit-cell volume =    776.35661 a.u.^3 (   115.04418 Ang^3 )

CELL_PARAMETERS (alat=  9.64829493)
   1.057878442   0.000000000   0.000000000
  -0.528939221   0.916149605   0.000000000
   0.000000000   0.000000000   0.891881961

ATOMIC_POSITIONS (crystal)
Ca       0.000000000   0.000000000   0.000000000
Cu       0.333333000   0.666667000   0.000000000
Cu       0.666667000   0.333333000   0.000000000
Cu       0.500000000   0.000000000   0.500000000
Cu       0.500000000   0.500000000   0.500000000
Cu       0.000000000   0.500000000   0.500000000



     Writing output data file Prototype-La-hP6-CaCu5.save
     Check: negative starting charge=   -0.000941
     NEW-OLD atomic charge density approx. for the potential
     NEW k-points: (use verbosity='high' to print them)
     Check: negative starting charge=   -0.001179

     negative rho (up, down):  0.274E-03 0.000E+00
     extrapolated charge   98.54715, renormalised to   98.00000

     total cpu time spent up to now is     1419.3 secs

     Self-consistent Calculation

     iteration #  1     ecut=    40.00 Ry     beta=0.70
     CG style diagonalization
     c_bands:  1 eigenvalues not converged
     c_bands:  1 eigenvalues not converged
     c_bands:  1 eigenvalues not converged
     c_bands:  2 eigenvalues not converged
     c_bands:  1 eigenvalues not converged
     c_bands:  1 eigenvalues not converged
     c_bands:  1 eigenvalues not converged
     c_bands:  1 eigenvalues not converged
     c_bands:  1 eigenvalues not converged
     c_bands:  1 eigenvalues not converged
     c_bands:  1 eigenvalues not converged
     c_bands:  1 eigenvalues not converged
     c_bands:  3 eigenvalues not converged
     c_bands:  4 eigenvalues not converged
     c_bands:  2 eigenvalues not converged
     c_bands:  3 eigenvalues not converged
     c_bands:  2 eigenvalues not converged
     c_bands:  2 eigenvalues not converged
     c_bands:  2 eigenvalues not converged
     c_bands:  1 eigenvalues not converged
     c_bands:  3 eigenvalues not converged
     c_bands:  2 eigenvalues not converged
     c_bands:  2 eigenvalues not converged
     c_bands:  1 eigenvalues not converged
     c_bands:  1 eigenvalues not converged
     c_bands:  1 eigenvalues not converged
     c_bands:  1 eigenvalues not converged
     c_bands:  3 eigenvalues not converged
     c_bands:  3 eigenvalues not converged
     c_bands:  2 eigenvalues not converged
     c_bands:  1 eigenvalues not converged
     c_bands:  2 eigenvalues not converged
     c_bands:  3 eigenvalues not converged
     c_bands:  3 eigenvalues not converged
     c_bands:  4 eigenvalues not converged
     c_bands:  2 eigenvalues not converged
     c_bands:  3 eigenvalues not converged
     c_bands:  2 eigenvalues not converged
     c_bands:  2 eigenvalues not converged
     c_bands:  3 eigenvalues not converged
     c_bands:  3 eigenvalues not converged
     c_bands:  4 eigenvalues not converged
     c_bands:  1 eigenvalues not converged
     c_bands:  2 eigenvalues not converged
     c_bands:  1 eigenvalues not converged
     c_bands:  1 eigenvalues not converged
     c_bands:  2 eigenvalues not converged
     c_bands:  1 eigenvalues not converged
     c_bands:  1 eigenvalues not converged
     c_bands:  2 eigenvalues not converged
     c_bands:  4 eigenvalues not converged
     c_bands:  3 eigenvalues not converged
     c_bands:  1 eigenvalues not converged
     c_bands:  1 eigenvalues not converged
     c_bands:  2 eigenvalues not converged
     c_bands:  1 eigenvalues not converged
     c_bands:  1 eigenvalues not converged
     c_bands:  1 eigenvalues not converged
     c_bands:  3 eigenvalues not converged
     c_bands:  1 eigenvalues not converged
     c_bands:  2 eigenvalues not converged
     c_bands:  3 eigenvalues not converged
     c_bands:  2 eigenvalues not converged
     c_bands:  2 eigenvalues not converged
     c_bands:  2 eigenvalues not converged
     c_bands:  3 eigenvalues not converged
     c_bands:  3 eigenvalues not converged
     c_bands:  1 eigenvalues not converged
     c_bands:  2 eigenvalues not converged
     c_bands:  3 eigenvalues not converged
     c_bands:  1 eigenvalues not converged
     c_bands:  2 eigenvalues not converged
     ethr =  1.00E-06,  avg # of iterations = 10.0

     negative rho (up, down):  0.804E-04 0.000E+00

     total cpu time spent up to now is     1472.7 secs

     total energy              =    -965.42840271 Ry
     Harris-Foulkes estimate   =    -967.77625225 Ry
     estimated scf accuracy    <       3.80804964 Ry

     iteration #  2     ecut=    40.00 Ry     beta=0.70
     CG style diagonalization
     ethr =  3.89E-03,  avg # of iterations =  4.2

     negative rho (up, down):  0.615E-04 0.000E+00

     total cpu time spent up to now is     1496.4 secs

     total energy              =    -964.28136501 Ry
     Harris-Foulkes estimate   =    -973.03968176 Ry
     estimated scf accuracy    <      27.53427591 Ry

     iteration #  3     ecut=    40.00 Ry     beta=0.70
     CG style diagonalization
     ethr =  3.89E-03,  avg # of iterations =  3.8

     negative rho (up, down):  0.372E-04 0.000E+00

     total cpu time spent up to now is     1516.7 secs

     total energy              =    -967.60518496 Ry
     Harris-Foulkes estimate   =    -967.74501182 Ry
     estimated scf accuracy    <       0.36612098 Ry

     iteration #  4     ecut=    40.00 Ry     beta=0.70
     CG style diagonalization
     ethr =  3.74E-04,  avg # of iterations =  3.8

     negative rho (up, down):  0.253E-04 0.000E+00

     total cpu time spent up to now is     1538.2 secs

     total energy              =    -967.70405278 Ry
     Harris-Foulkes estimate   =    -967.73650794 Ry
     estimated scf accuracy    <       0.09754798 Ry

     iteration #  5     ecut=    40.00 Ry     beta=0.70
     CG style diagonalization
     ethr =  9.95E-05,  avg # of iterations =  3.3

     total cpu time spent up to now is     1556.7 secs

     total energy              =    -967.71525703 Ry
     Harris-Foulkes estimate   =    -967.72008394 Ry
     estimated scf accuracy    <       0.00916172 Ry

     iteration #  6     ecut=    40.00 Ry     beta=0.70
     CG style diagonalization
     c_bands:  1 eigenvalues not converged
     ethr =  9.35E-06,  avg # of iterations =  4.1

     total cpu time spent up to now is     1578.7 secs

     total energy              =    -967.71850756 Ry
     Harris-Foulkes estimate   =    -967.71970364 Ry
     estimated scf accuracy    <       0.00284218 Ry

     iteration #  7     ecut=    40.00 Ry     beta=0.70
     CG style diagonalization
     c_bands:  1 eigenvalues not converged
     ethr =  2.90E-06,  avg # of iterations =  3.4

     total cpu time spent up to now is     1598.4 secs

     total energy              =    -967.71892258 Ry
     Harris-Foulkes estimate   =    -967.71895399 Ry
     estimated scf accuracy    <       0.00006464 Ry

     iteration #  8     ecut=    40.00 Ry     beta=0.70
     CG style diagonalization
     ethr =  6.60E-08,  avg # of iterations =  4.4

     total cpu time spent up to now is     1620.9 secs

     total energy              =    -967.71896000 Ry
     Harris-Foulkes estimate   =    -967.71896397 Ry
     estimated scf accuracy    <       0.00001163 Ry

     iteration #  9     ecut=    40.00 Ry     beta=0.70
     CG style diagonalization
     ethr =  1.19E-08,  avg # of iterations =  3.4

     total cpu time spent up to now is     1639.7 secs

     End of self-consistent calculation

     Number of k-points >= 100: set verbosity='high' to print the bands.

     the Fermi energy is    24.8575 ev

!    total energy              =    -967.71896230 Ry
     Harris-Foulkes estimate   =    -967.71896258 Ry
     estimated scf accuracy    <       0.00000037 Ry

     The total energy is the sum of the following terms:

     one-electron contribution =    -120.17288423 Ry
     hartree contribution      =     138.41602172 Ry
     xc contribution           =    -103.26909998 Ry
     ewald contribution        =    -882.34587337 Ry
     smearing contrib. (-TS)   =      -0.34712644 Ry

     convergence has been achieved in   9 iterations

     Forces acting on atoms (Ry/au):

     atom    1 type  1   force =     0.00000000    0.00000000    0.00000000
     atom    2 type  2   force =     0.00000000    0.00000000    0.00000000
     atom    3 type  2   force =     0.00000000    0.00000000    0.00000000
     atom    4 type  2   force =     0.00000000    0.00000000    0.00000000
     atom    5 type  2   force =     0.00000000    0.00000000    0.00000000
     atom    6 type  2   force =     0.00000000    0.00000000    0.00000000

     Total force =     0.000000     Total SCF correction =     0.000000


     entering subroutine stress ...

          total   stress  (Ry/bohr**3)                   (kbar)     P= -154.52
  -0.00099704   0.00000000   0.00000000       -146.67      0.00      0.00
   0.00000000  -0.00099704   0.00000000          0.00   -146.67      0.00
   0.00000000   0.00000000  -0.00115717          0.00      0.00   -170.23


     The maximum number of steps has been reached.

     End of BFGS Geometry Optimization
Begin final coordinates
     new unit-cell volume =    776.35661 a.u.^3 (   115.04418 Ang^3 )

CELL_PARAMETERS (alat=  9.64829493)
   1.057878442   0.000000000   0.000000000
  -0.528939221   0.916149605   0.000000000
   0.000000000   0.000000000   0.891881961

ATOMIC_POSITIONS (crystal)
Ca       0.000000000   0.000000000   0.000000000
Cu       0.333333000   0.666667000   0.000000000
Cu       0.666667000   0.333333000   0.000000000
Cu       0.500000000   0.000000000   0.500000000
Cu       0.500000000   0.500000000   0.500000000
Cu       0.000000000   0.500000000   0.500000000
End final coordinates



     A final scf calculation at the relaxed structure.
     The G-vectors are recalculated for the final unit cell
     Results may differ from those at the preceding step.
 
     Parallelization info
     --------------------
     sticks:   dense  smooth     PW     G-vecs:    dense   smooth      PW
     Min         289     289     86                 6628     6628    1089
     Max         290     290     88                 6629     6629    1092
     Sum        1159    1159    349                26513    26513    4363
 


     bravais-lattice index     =            0
     lattice parameter (alat)  =       9.6483  a.u.
     unit-cell volume          =     776.3566 (a.u.)^3
     number of atoms/cell      =            6
     number of atomic types    =            2
     number of electrons       =        98.00
     number of Kohn-Sham states=           59
     kinetic-energy cutoff     =      40.0000  Ry
     charge density cutoff     =     160.0000  Ry
     convergence threshold     =      1.0E-06
     mixing beta               =       0.7000
     number of iterations used =            8  plain     mixing
     Exchange-correlation      = SLA-PZ-NOGX-NOGC ( 1 1 0 0 0)
     EXX-fraction              =        0.00

     celldm(1)=   9.648295  celldm(2)=   0.000000  celldm(3)=   0.000000
     celldm(4)=   0.000000  celldm(5)=   0.000000  celldm(6)=   0.000000

     crystal axes: (cart. coord. in units of alat)
               a(1) = (   1.057878   0.000000   0.000000 )  
               a(2) = (  -0.528939   0.916150   0.000000 )  
               a(3) = (   0.000000   0.000000   0.891882 )  

     reciprocal axes: (cart. coord. in units 2 pi/alat)
               b(1) = (  0.945288  0.545762  0.000000 )  
               b(2) = (  0.000000  1.091525  0.000000 )  
               b(3) = (  0.000000  0.000000  1.121225 )  


     PseudoPot. # 1 for Pr read from file:
     /home/cwx6513/pp.La/Pr.UPF
     MD5 check sum: 70e2b4b153859e92c8c91247dfc63203
     Pseudo is Norm-conserving, Zval = 13.0
     Generated in analytical, separable form
     Using radial grid of 1255 points,  6 beta functions with: 
                l(1) =   0
                l(2) =   0
                l(3) =   1
                l(4) =   1
                l(5) =   2
                l(6) =   3

     PseudoPot. # 2 for Eu read from file:
     /home/cwx6513/pp.La/Eu.UPF
     MD5 check sum: 5efdbbfc50c6a10138933a6429836ad2
     Pseudo is Norm-conserving, Zval = 17.0
     Generated in analytical, separable form
     Using radial grid of 1261 points,  6 beta functions with: 
                l(1) =   0
                l(2) =   0
                l(3) =   1
                l(4) =   1
                l(5) =   2
                l(6) =   3

     atomic species   valence    mass     pseudopotential
        Ca            13.00    40.07800     Pr( 1.00)
        Cu            17.00    63.54600     Eu( 1.00)

     24 Sym. Ops., with inversion, found



   Cartesian axes

     site n.     atom                  positions (alat units)
         1           Ca  tau(   1) = (   0.0000000   0.0000000   0.0000000  )
         2           Cu  tau(   2) = (  -0.0000005   0.6107667   0.0000000  )
         3           Cu  tau(   3) = (   0.5289397   0.3053829   0.0000000  )
         4           Cu  tau(   4) = (   0.5289392   0.0000000   0.4459410  )
         5           Cu  tau(   5) = (   0.2644696   0.4580748   0.4459410  )
         6           Cu  tau(   6) = (  -0.2644696   0.4580748   0.4459410  )

     number of k points=   110  gaussian smearing, width (Ry)=  0.1000

     Number of k-points >= 100: set verbosity='high' to print them.

     Dense  grid:    26513 G-vectors     FFT dimensions: (  45,  45,  36)

     Largest allocated arrays     est. size (Mb)     dimensions
        Kohn-Sham Wavefunctions         0.76 Mb     (    844,   59)
        NL pseudopotentials             1.55 Mb     (    844,  120)
        Each V/rho on FFT grid          0.28 Mb     (  18225)
        Each G-vector array             0.05 Mb     (   6629)
        G-vector shells                 0.01 Mb     (   1186)
     Largest temporary arrays     est. size (Mb)     dimensions
        Each subspace H/S matrix        0.05 Mb     (  59,  59)
        Each <psi_i|beta_j> matrix      0.11 Mb     (    120,   59)
        Arrays for rho mixing           2.22 Mb     (  18225,   8)

     Initial potential from superposition of free atoms
     Check: negative starting charge=   -0.000135

     starting charge   12.99054, renormalised to   98.00000

     negative rho (up, down):  0.102E-02 0.000E+00
     Starting wfc are   20 randomized atomic wfcs

     Writing output data file Prototype-La-hP6-CaCu5.save

     total cpu time spent up to now is     1653.8 secs

     Self-consistent Calculation

     iteration #  1     ecut=    40.00 Ry     beta=0.70
     CG style diagonalization
     c_bands: 13 eigenvalues not converged
     c_bands: 13 eigenvalues not converged
     c_bands: 13 eigenvalues not converged
     c_bands: 11 eigenvalues not converged
     c_bands: 13 eigenvalues not converged
     c_bands: 13 eigenvalues not converged
     c_bands: 12 eigenvalues not converged
     c_bands: 14 eigenvalues not converged
     c_bands: 12 eigenvalues not converged
     c_bands: 13 eigenvalues not converged
     c_bands: 13 eigenvalues not converged
     c_bands: 13 eigenvalues not converged
     c_bands: 13 eigenvalues not converged
     c_bands: 11 eigenvalues not converged
     c_bands: 13 eigenvalues not converged
     c_bands: 14 eigenvalues not converged
     c_bands: 13 eigenvalues not converged
     c_bands: 12 eigenvalues not converged
     c_bands:  9 eigenvalues not converged
     c_bands: 12 eigenvalues not converged
     c_bands: 12 eigenvalues not converged
     c_bands: 14 eigenvalues not converged
     c_bands: 14 eigenvalues not converged
     c_bands: 12 eigenvalues not converged
     c_bands: 12 eigenvalues not converged
     c_bands: 12 eigenvalues not converged
     c_bands: 14 eigenvalues not converged
     c_bands: 12 eigenvalues not converged
     c_bands: 11 eigenvalues not converged
     c_bands: 11 eigenvalues not converged
     c_bands: 12 eigenvalues not converged
     c_bands: 13 eigenvalues not converged
     c_bands: 12 eigenvalues not converged
     c_bands: 11 eigenvalues not converged
     c_bands: 11 eigenvalues not converged
     c_bands: 13 eigenvalues not converged
     c_bands: 13 eigenvalues not converged
     c_bands: 13 eigenvalues not converged
     c_bands: 10 eigenvalues not converged
     c_bands:  8 eigenvalues not converged
     c_bands: 13 eigenvalues not converged
     c_bands: 12 eigenvalues not converged
     c_bands: 11 eigenvalues not converged
     c_bands: 12 eigenvalues not converged
     c_bands: 10 eigenvalues not converged
     c_bands: 12 eigenvalues not converged
     c_bands: 12 eigenvalues not converged
     c_bands: 13 eigenvalues not converged
     c_bands: 12 eigenvalues not converged
     c_bands: 14 eigenvalues not converged
     c_bands: 13 eigenvalues not converged
     c_bands: 14 eigenvalues not converged
     c_bands: 13 eigenvalues not converged
     c_bands: 12 eigenvalues not converged
     c_bands: 12 eigenvalues not converged
     c_bands: 13 eigenvalues not converged
     c_bands: 14 eigenvalues not converged
     c_bands: 11 eigenvalues not converged
     c_bands: 13 eigenvalues not converged
     c_bands: 10 eigenvalues not converged
     c_bands: 13 eigenvalues not converged
     c_bands: 13 eigenvalues not converged
     c_bands: 12 eigenvalues not converged
     c_bands: 12 eigenvalues not converged
     c_bands:  8 eigenvalues not converged
     c_bands: 11 eigenvalues not converged
     c_bands: 12 eigenvalues not converged
     c_bands: 12 eigenvalues not converged
     c_bands: 10 eigenvalues not converged
     c_bands: 10 eigenvalues not converged
     c_bands: 13 eigenvalues not converged
     c_bands: 12 eigenvalues not converged
     c_bands: 10 eigenvalues not converged
     c_bands: 12 eigenvalues not converged
     c_bands: 11 eigenvalues not converged
     c_bands: 13 eigenvalues not converged
     c_bands: 13 eigenvalues not converged
     c_bands: 13 eigenvalues not converged
     c_bands: 10 eigenvalues not converged
     c_bands: 11 eigenvalues not converged
     c_bands: 13 eigenvalues not converged
     c_bands: 14 eigenvalues not converged
     c_bands: 14 eigenvalues not converged
     c_bands: 14 eigenvalues not converged
     c_bands: 12 eigenvalues not converged
     c_bands: 13 eigenvalues not converged
     c_bands: 13 eigenvalues not converged
     c_bands: 13 eigenvalues not converged
     c_bands: 12 eigenvalues not converged
     c_bands: 14 eigenvalues not converged
     c_bands: 13 eigenvalues not converged
     c_bands: 13 eigenvalues not converged
     c_bands: 13 eigenvalues not converged
     c_bands: 12 eigenvalues not converged
     c_bands: 12 eigenvalues not converged
     c_bands: 12 eigenvalues not converged
     c_bands: 13 eigenvalues not converged
     c_bands: 12 eigenvalues not converged
     c_bands: 11 eigenvalues not converged
     c_bands: 10 eigenvalues not converged
     c_bands: 13 eigenvalues not converged
     c_bands: 13 eigenvalues not converged
     c_bands: 13 eigenvalues not converged
     c_bands: 11 eigenvalues not converged
     c_bands: 10 eigenvalues not converged
     c_bands: 13 eigenvalues not converged
     c_bands: 13 eigenvalues not converged
     c_bands: 11 eigenvalues not converged
     c_bands:  9 eigenvalues not converged
     c_bands: 11 eigenvalues not converged
     ethr =  1.00E-06,  avg # of iterations = 92.8

     negative rho (up, down):  0.306E-03 0.000E+00

     total cpu time spent up to now is     2383.4 secs

     total energy              =    -819.77770099 Ry
     Harris-Foulkes estimate   =   -3933.63075027 Ry
     estimated scf accuracy    <    3574.49377716 Ry

     iteration #  2     ecut=    40.00 Ry     beta=0.70
     CG style diagonalization
     ethr =  1.00E-02,  avg # of iterations = 19.2

     negative rho (up, down):  0.143E-03 0.000E+00

     total cpu time spent up to now is     2538.5 secs

     total energy              =    -399.30643662 Ry
     Harris-Foulkes estimate   =   -1423.63030467 Ry
     estimated scf accuracy    <    1412.77157162 Ry

     iteration #  3     ecut=    40.00 Ry     beta=0.70
     CG style diagonalization
     c_bands:  5 eigenvalues not converged
     c_bands:  4 eigenvalues not converged
     c_bands:  5 eigenvalues not converged
     c_bands:  4 eigenvalues not converged
     ethr =  1.00E-02,  avg # of iterations = 18.9

     negative rho (up, down):  0.275E-04 0.000E+00

     total cpu time spent up to now is     2692.5 secs

     total energy              =    -882.15571188 Ry
     Harris-Foulkes estimate   =   -1268.69085625 Ry
     estimated scf accuracy    <     827.05030832 Ry

     iteration #  4     ecut=    40.00 Ry     beta=0.70
     CG style diagonalization
     c_bands:  3 eigenvalues not converged
     c_bands:  1 eigenvalues not converged
     c_bands:  1 eigenvalues not converged
     c_bands:  1 eigenvalues not converged
     c_bands:  1 eigenvalues not converged
     c_bands:  1 eigenvalues not converged
     c_bands:  1 eigenvalues not converged
     c_bands:  1 eigenvalues not converged
     c_bands:  1 eigenvalues not converged
     c_bands:  1 eigenvalues not converged
     c_bands:  1 eigenvalues not converged
     c_bands:  1 eigenvalues not converged
     c_bands:  1 eigenvalues not converged
     c_bands:  1 eigenvalues not converged
     c_bands:  1 eigenvalues not converged
     c_bands:  1 eigenvalues not converged
     c_bands:  1 eigenvalues not converged
     c_bands:  1 eigenvalues not converged
     c_bands:  1 eigenvalues not converged
     c_bands:  1 eigenvalues not converged
     c_bands:  1 eigenvalues not converged
     c_bands:  1 eigenvalues not converged
     c_bands:  1 eigenvalues not converged
     c_bands:  3 eigenvalues not converged
     c_bands:  1 eigenvalues not converged
     c_bands:  1 eigenvalues not converged
     ethr =  1.00E-02,  avg # of iterations = 10.8

     negative rho (up, down):  0.376E-04 0.000E+00

     total cpu time spent up to now is     2781.6 secs

     total energy              =    -723.89594183 Ry
     Harris-Foulkes estimate   =   -1070.56662242 Ry
     estimated scf accuracy    <     514.22260366 Ry

     iteration #  5     ecut=    40.00 Ry     beta=0.70
     CG style diagonalization
     c_bands:  5 eigenvalues not converged
     c_bands:  3 eigenvalues not converged
     c_bands:  1 eigenvalues not converged
     c_bands:  3 eigenvalues not converged
     c_bands:  5 eigenvalues not converged
     c_bands:  3 eigenvalues not converged
     c_bands:  4 eigenvalues not converged
     c_bands:  2 eigenvalues not converged
     c_bands:  5 eigenvalues not converged
     c_bands:  4 eigenvalues not converged
     c_bands:  2 eigenvalues not converged
     c_bands:  3 eigenvalues not converged
     c_bands:  3 eigenvalues not converged
     c_bands:  2 eigenvalues not converged
     c_bands:  4 eigenvalues not converged
     c_bands:  3 eigenvalues not converged
     c_bands:  3 eigenvalues not converged
     c_bands:  4 eigenvalues not converged
     c_bands:  2 eigenvalues not converged
     c_bands:  2 eigenvalues not converged
     c_bands:  2 eigenvalues not converged
     c_bands:  3 eigenvalues not converged
     c_bands:  4 eigenvalues not converged
     c_bands:  4 eigenvalues not converged
     c_bands:  4 eigenvalues not converged
     c_bands:  5 eigenvalues not converged
     c_bands:  3 eigenvalues not converged
     c_bands:  5 eigenvalues not converged
     c_bands:  5 eigenvalues not converged
     c_bands:  5 eigenvalues not converged
     c_bands:  4 eigenvalues not converged
     c_bands:  5 eigenvalues not converged
     c_bands:  2 eigenvalues not converged
     c_bands:  3 eigenvalues not converged
     c_bands:  4 eigenvalues not converged
     c_bands:  5 eigenvalues not converged
     c_bands:  4 eigenvalues not converged
     c_bands:  3 eigenvalues not converged
     c_bands:  2 eigenvalues not converged
     c_bands:  5 eigenvalues not converged
     c_bands:  4 eigenvalues not converged
     c_bands:  2 eigenvalues not converged
     c_bands:  3 eigenvalues not converged
     c_bands:  2 eigenvalues not converged
     c_bands:  2 eigenvalues not converged
     c_bands:  5 eigenvalues not converged
     c_bands:  5 eigenvalues not converged
     c_bands:  2 eigenvalues not converged
     c_bands:  3 eigenvalues not converged
     c_bands:  3 eigenvalues not converged
     c_bands:  4 eigenvalues not converged
     c_bands:  2 eigenvalues not converged
     c_bands:  2 eigenvalues not converged
     c_bands:  3 eigenvalues not converged
     c_bands:  4 eigenvalues not converged
     c_bands:  4 eigenvalues not converged
     c_bands:  1 eigenvalues not converged
     c_bands:  3 eigenvalues not converged
     c_bands:  4 eigenvalues not converged
     c_bands:  5 eigenvalues not converged
     c_bands:  3 eigenvalues not converged
     c_bands:  4 eigenvalues not converged
     c_bands:  4 eigenvalues not converged
     c_bands:  3 eigenvalues not converged
     c_bands:  4 eigenvalues not converged
     c_bands:  3 eigenvalues not converged
     c_bands:  5 eigenvalues not converged
     c_bands:  4 eigenvalues not converged
     c_bands:  3 eigenvalues not converged
     c_bands:  4 eigenvalues not converged
     c_bands:  4 eigenvalues not converged
     c_bands:  2 eigenvalues not converged
     c_bands:  2 eigenvalues not converged
     c_bands:  2 eigenvalues not converged
     c_bands:  5 eigenvalues not converged
     c_bands:  4 eigenvalues not converged
     c_bands:  4 eigenvalues not converged
     c_bands:  4 eigenvalues not converged
     c_bands:  3 eigenvalues not converged
     c_bands:  5 eigenvalues not converged
     c_bands:  5 eigenvalues not converged
     c_bands:  5 eigenvalues not converged
     c_bands:  5 eigenvalues not converged
     c_bands:  4 eigenvalues not converged
     c_bands:  5 eigenvalues not converged
     c_bands:  3 eigenvalues not converged
     c_bands:  5 eigenvalues not converged
     c_bands:  4 eigenvalues not converged
     c_bands:  4 eigenvalues not converged
     c_bands:  5 eigenvalues not converged
     c_bands:  4 eigenvalues not converged
     c_bands:  4 eigenvalues not converged
     c_bands:  2 eigenvalues not converged
     c_bands:  2 eigenvalues not converged
     c_bands:  5 eigenvalues not converged
     c_bands:  1 eigenvalues not converged
     c_bands:  2 eigenvalues not converged
     c_bands:  5 eigenvalues not converged
     ethr =  1.00E-02,  avg # of iterations = 11.3

     negative rho (up, down):  0.230E-04 0.000E+00

     total cpu time spent up to now is     2881.6 secs

     total energy              =   -1052.84127160 Ry
     Harris-Foulkes estimate   =   -1080.10391893 Ry
     estimated scf accuracy    <     209.11543289 Ry

     iteration #  6     ecut=    40.00 Ry     beta=0.70
     CG style diagonalization
     ethr =  1.00E-02,  avg # of iterations =  3.0

     total cpu time spent up to now is     2907.4 secs

     total energy              =    -936.45854136 Ry
     Harris-Foulkes estimate   =   -1053.35167348 Ry
     estimated scf accuracy    <     176.68135987 Ry

     iteration #  7     ecut=    40.00 Ry     beta=0.70
     CG style diagonalization
     c_bands:  1 eigenvalues not converged
     c_bands:  1 eigenvalues not converged
     c_bands:  1 eigenvalues not converged
     c_bands:  1 eigenvalues not converged
     c_bands:  1 eigenvalues not converged
     c_bands:  1 eigenvalues not converged
     c_bands:  1 eigenvalues not converged
     c_bands:  1 eigenvalues not converged
     ethr =  1.00E-02,  avg # of iterations =  8.0

     negative rho (up, down):  0.559E-02 0.000E+00

     total cpu time spent up to now is     2973.9 secs

     total energy              =    -983.66699595 Ry
     Harris-Foulkes estimate   =    -971.03137427 Ry
     estimated scf accuracy    <      18.14273733 Ry

     iteration #  8     ecut=    40.00 Ry     beta=0.70
     CG style diagonalization
     c_bands:  1 eigenvalues not converged
     c_bands:  1 eigenvalues not converged
     c_bands:  1 eigenvalues not converged
     c_bands:  1 eigenvalues not converged
     c_bands:  1 eigenvalues not converged
     c_bands:  1 eigenvalues not converged
     c_bands:  1 eigenvalues not converged
     c_bands:  1 eigenvalues not converged
     ethr =  1.00E-02,  avg # of iterations =  6.3

     total cpu time spent up to now is     3030.1 secs

     total energy              =    -925.42497964 Ry
     Harris-Foulkes estimate   =    -998.04762958 Ry
     estimated scf accuracy    <     261.51093179 Ry

     iteration #  9     ecut=    40.00 Ry     beta=0.70
     CG style diagonalization
     c_bands:  1 eigenvalues not converged
     c_bands:  1 eigenvalues not converged
     c_bands:  1 eigenvalues not converged
     c_bands:  1 eigenvalues not converged
     c_bands:  1 eigenvalues not converged
     c_bands:  1 eigenvalues not converged
     c_bands:  1 eigenvalues not converged
     c_bands:  1 eigenvalues not converged
     ethr =  1.00E-02,  avg # of iterations =  6.4

     total cpu time spent up to now is     3085.6 secs

     total energy              =    -971.65123899 Ry
     Harris-Foulkes estimate   =    -969.09996816 Ry
     estimated scf accuracy    <       2.75788391 Ry

     iteration # 10     ecut=    40.00 Ry     beta=0.70
     CG style diagonalization
     ethr =  2.81E-03,  avg # of iterations =  4.2

     total cpu time spent up to now is     3122.0 secs

     total energy              =    -972.91722771 Ry
     Harris-Foulkes estimate   =    -973.37515640 Ry
     estimated scf accuracy    <      13.45438290 Ry

     iteration # 11     ecut=    40.00 Ry     beta=0.70
     CG style diagonalization
     ethr =  2.81E-03,  avg # of iterations =  3.0

     total cpu time spent up to now is     3148.4 secs

     total energy              =    -969.58732248 Ry
     Harris-Foulkes estimate   =    -972.96605278 Ry
     estimated scf accuracy    <      12.26763248 Ry

     iteration # 12     ecut=    40.00 Ry     beta=0.70
     CG style diagonalization
     ethr =  2.81E-03,  avg # of iterations =  3.3

     total cpu time spent up to now is     3179.2 secs

     total energy              =    -969.03463046 Ry
     Harris-Foulkes estimate   =    -969.95334179 Ry
     estimated scf accuracy    <       5.27914951 Ry

     iteration # 13     ecut=    40.00 Ry     beta=0.70
     CG style diagonalization
     ethr =  2.81E-03,  avg # of iterations =  3.0

     total cpu time spent up to now is     3206.6 secs

     total energy              =    -968.79291599 Ry
     Harris-Foulkes estimate   =    -969.12757087 Ry
     estimated scf accuracy    <       3.04224233 Ry

     iteration # 14     ecut=    40.00 Ry     beta=0.70
     CG style diagonalization
     ethr =  2.81E-03,  avg # of iterations =  3.0

     total cpu time spent up to now is     3233.9 secs

     total energy              =    -968.64883853 Ry
     Harris-Foulkes estimate   =    -968.83133469 Ry
     estimated scf accuracy    <       2.11149283 Ry

     iteration # 15     ecut=    40.00 Ry     beta=0.70
     CG style diagonalization
     ethr =  2.15E-03,  avg # of iterations =  3.0

     total cpu time spent up to now is     3258.8 secs

     total energy              =    -968.06606823 Ry
     Harris-Foulkes estimate   =    -968.67461673 Ry
     estimated scf accuracy    <       1.62672995 Ry

     iteration # 16     ecut=    40.00 Ry     beta=0.70
     CG style diagonalization
     ethr =  1.66E-03,  avg # of iterations =  3.7

     total cpu time spent up to now is     3291.2 secs

     total energy              =    -968.40538049 Ry
     Harris-Foulkes estimate   =    -968.41267726 Ry
     estimated scf accuracy    <       0.07187625 Ry

     iteration # 17     ecut=    40.00 Ry     beta=0.70
     CG style diagonalization
     c_bands:  1 eigenvalues not converged
     c_bands:  1 eigenvalues not converged
     c_bands:  1 eigenvalues not converged
     c_bands:  1 eigenvalues not converged
     c_bands:  1 eigenvalues not converged
     c_bands:  1 eigenvalues not converged
     c_bands:  1 eigenvalues not converged
     c_bands:  1 eigenvalues not converged
     c_bands:  1 eigenvalues not converged
     c_bands:  1 eigenvalues not converged
     c_bands:  1 eigenvalues not converged
     c_bands:  2 eigenvalues not converged
     c_bands:  1 eigenvalues not converged
     c_bands:  1 eigenvalues not converged
     c_bands:  1 eigenvalues not converged
     c_bands:  1 eigenvalues not converged
     c_bands:  1 eigenvalues not converged
     c_bands:  1 eigenvalues not converged
     c_bands:  1 eigenvalues not converged
     ethr =  7.33E-05,  avg # of iterations =  4.2

     total cpu time spent up to now is     3326.8 secs

     total energy              =    -968.56126689 Ry
     Harris-Foulkes estimate   =    -968.43436282 Ry
     estimated scf accuracy    <       0.18101612 Ry

     iteration # 18     ecut=    40.00 Ry     beta=0.70
     CG style diagonalization
     ethr =  7.33E-05,  avg # of iterations =  4.0

     total cpu time spent up to now is     3360.1 secs

     total energy              =    -968.79923099 Ry
     Harris-Foulkes estimate   =    -968.71931268 Ry
     estimated scf accuracy    <       2.61206675 Ry

     iteration # 19     ecut=    40.00 Ry     beta=0.70
     CG style diagonalization
     ethr =  7.33E-05,  avg # of iterations =  3.0

     total cpu time spent up to now is     3386.3 secs

     total energy              =    -968.62431794 Ry
     Harris-Foulkes estimate   =    -968.80593279 Ry
     estimated scf accuracy    <       3.38707041 Ry

     iteration # 20     ecut=    40.00 Ry     beta=0.70
     CG style diagonalization
     ethr =  7.33E-05,  avg # of iterations =  3.0

     negative rho (up, down):  0.254E-05 0.000E+00

     total cpu time spent up to now is     3415.5 secs

     total energy              =    -968.35774816 Ry
     Harris-Foulkes estimate   =    -968.64212078 Ry
     estimated scf accuracy    <       2.06204976 Ry

     iteration # 21     ecut=    40.00 Ry     beta=0.70
     CG style diagonalization
     ethr =  7.33E-05,  avg # of iterations =  3.7

     negative rho (up, down):  0.321E-05 0.000E+00

     total cpu time spent up to now is     3448.8 secs

     total energy              =    -968.43617976 Ry
     Harris-Foulkes estimate   =    -968.44669565 Ry
     estimated scf accuracy    <       0.25709032 Ry

     iteration # 22     ecut=    40.00 Ry     beta=0.70
     CG style diagonalization
     ethr =  7.33E-05,  avg # of iterations =  3.0

     negative rho (up, down):  0.313E-05 0.000E+00

     total cpu time spent up to now is     3473.5 secs

     total energy              =    -968.39220435 Ry
     Harris-Foulkes estimate   =    -968.43732959 Ry
     estimated scf accuracy    <       0.18588385 Ry

     iteration # 23     ecut=    40.00 Ry     beta=0.70
     CG style diagonalization
     ethr =  7.33E-05,  avg # of iterations =  3.2

     negative rho (up, down):  0.891E-07 0.000E+00

     total cpu time spent up to now is     3500.0 secs

     total energy              =    -968.40724374 Ry
     Harris-Foulkes estimate   =    -968.41002044 Ry
     estimated scf accuracy    <       0.00589227 Ry

     iteration # 24     ecut=    40.00 Ry     beta=0.70
     CG style diagonalization
     c_bands:  1 eigenvalues not converged
     c_bands:  1 eigenvalues not converged
     c_bands:  1 eigenvalues not converged
     c_bands:  1 eigenvalues not converged
     c_bands:  1 eigenvalues not converged
     ethr =  6.01E-06,  avg # of iterations =  4.1

     total cpu time spent up to now is     3535.8 secs

     total energy              =    -968.40846518 Ry
     Harris-Foulkes estimate   =    -968.40876177 Ry
     estimated scf accuracy    <       0.00168118 Ry

     iteration # 25     ecut=    40.00 Ry     beta=0.70
     CG style diagonalization
     ethr =  1.72E-06,  avg # of iterations =  3.3

     total cpu time spent up to now is     3563.7 secs

     total energy              =    -968.40856075 Ry
     Harris-Foulkes estimate   =    -968.40863306 Ry
     estimated scf accuracy    <       0.00039905 Ry

     iteration # 26     ecut=    40.00 Ry     beta=0.70
     CG style diagonalization
     ethr =  4.07E-07,  avg # of iterations =  3.1

     total cpu time spent up to now is     3590.3 secs

     total energy              =    -968.40856639 Ry
     Harris-Foulkes estimate   =    -968.40858201 Ry
     estimated scf accuracy    <       0.00019830 Ry

     iteration # 27     ecut=    40.00 Ry     beta=0.70
     CG style diagonalization
     ethr =  2.02E-07,  avg # of iterations =  3.0

     total cpu time spent up to now is     3616.1 secs

     total energy              =    -968.40855790 Ry
     Harris-Foulkes estimate   =    -968.40857382 Ry
     estimated scf accuracy    <       0.00011025 Ry

     iteration # 28     ecut=    40.00 Ry     beta=0.70
     CG style diagonalization
     ethr =  1.12E-07,  avg # of iterations =  3.1

     total cpu time spent up to now is     3641.5 secs

     total energy              =    -968.40855941 Ry
     Harris-Foulkes estimate   =    -968.40856533 Ry
     estimated scf accuracy    <       0.00002219 Ry

     iteration # 29     ecut=    40.00 Ry     beta=0.70
     CG style diagonalization
     ethr =  2.26E-08,  avg # of iterations =  3.8

     total cpu time spent up to now is     3674.0 secs

     total energy              =    -968.40856637 Ry
     Harris-Foulkes estimate   =    -968.40856666 Ry
     estimated scf accuracy    <       0.00000164 Ry

     iteration # 30     ecut=    40.00 Ry     beta=0.70
     CG style diagonalization
     ethr =  1.68E-09,  avg # of iterations =  3.6

     total cpu time spent up to now is     3706.3 secs

     End of self-consistent calculation

     Number of k-points >= 100: set verbosity='high' to print the bands.

     the Fermi energy is    24.8471 ev

!    total energy              =    -968.40856626 Ry
     Harris-Foulkes estimate   =    -968.40856669 Ry
     estimated scf accuracy    <       0.00000048 Ry

     The total energy is the sum of the following terms:

     one-electron contribution =    -121.10988305 Ry
     hartree contribution      =     138.73015098 Ry
     xc contribution           =    -103.33626755 Ry
     ewald contribution        =    -882.34587264 Ry
     smearing contrib. (-TS)   =      -0.34669399 Ry

     convergence has been achieved in  30 iterations

     Forces acting on atoms (Ry/au):

     atom    1 type  1   force =     0.00000000    0.00000000    0.00000000
     atom    2 type  2   force =     0.00000000    0.00000000    0.00000000
     atom    3 type  2   force =     0.00000000    0.00000000    0.00000000
     atom    4 type  2   force =     0.00000000    0.00000000    0.00000000
     atom    5 type  2   force =     0.00000000    0.00000000    0.00000000
     atom    6 type  2   force =     0.00000000    0.00000000    0.00000000

     Total force =     0.000000     Total SCF correction =     0.000000


     entering subroutine stress ...

          total   stress  (Ry/bohr**3)                   (kbar)     P=  194.44
   0.00102641   0.00000000   0.00000000        150.99      0.00      0.00
   0.00000000   0.00102641   0.00000000          0.00    150.99      0.00
   0.00000000   0.00000000   0.00191242          0.00      0.00    281.33


     Writing output data file Prototype-La-hP6-CaCu5.save
 
     init_run     :     10.61s CPU     14.97s WALL (       2 calls)
     electrons    :   2966.76s CPU   3667.03s WALL (       5 calls)
     update_pot   :      1.36s CPU      1.42s WALL (       3 calls)
     forces       :      7.03s CPU      7.19s WALL (       5 calls)
     stress       :     17.85s CPU     18.23s WALL (       5 calls)

     Called by init_run:
     wfcinit      :     10.00s CPU     14.33s WALL (       2 calls)
     potinit      :      0.23s CPU      0.23s WALL (       2 calls)

     Called by electrons:
     c_bands      :   2858.14s CPU   3503.22s WALL (      75 calls)
     sum_band     :    107.42s CPU    147.55s WALL (      75 calls)
     v_of_rho     :      0.10s CPU      0.12s WALL (      80 calls)
     mix_rho      :      0.13s CPU      0.16s WALL (      75 calls)

     Called by c_bands:
     init_us_2    :      7.73s CPU     10.29s WALL (   17820 calls)
     ccgdiagg     :   2485.49s CPU   3013.15s WALL (    9480 calls)
     wfcrot       :    374.53s CPU    482.04s WALL (    9590 calls)

     Called by *cgdiagg:
     h_psi        :   2101.29s CPU   2656.62s WALL ( 2774202 calls)
     cdiaghg      :     16.08s CPU     16.97s WALL (    9590 calls)

     Called by h_psi:
     add_vuspsi   :    170.15s CPU    232.01s WALL ( 2774202 calls)

     General routines
     calbec       :    513.71s CPU    561.54s WALL ( 5539914 calls)
     fft          :      0.11s CPU      0.14s WALL (     343 calls)
     fftw         :   1594.64s CPU   2000.38s WALL ( 7147594 calls)
     davcio       :      5.87s CPU     20.09s WALL (   26070 calls)
 
     Parallel routines
     fft_scatter  :    697.76s CPU    868.24s WALL ( 7147937 calls)
 
     PWSCF        :     0h50m CPU        1h 1m WALL

 
   This run was terminated on:  17:20:43  22Mar2018            

=------------------------------------------------------------------------------=
   JOB DONE.
=------------------------------------------------------------------------------=
