
     Program PWSCF v.5.0.2 starts on 21Mar2018 at 22:59: 9 

     This program is part of the open-source Quantum ESPRESSO suite
     for quantum simulation of materials; please cite
         "P. Giannozzi et al., J. Phys.:Condens. Matter 21 395502 (2009);
          URL http://www.quantum-espresso.org", 
     in publications or presentations arising from this work. More details at
     http://www.quantum-espresso.org/quote.php

     Parallel version (MPI), running on    20 processors
     R & G space division:  proc/nbgrp/npool/nimage =      20

     Current dimensions of program PWSCF are:
     Max number of different atomic species (ntypx) = 10
     Max number of k-points (npk) =  40000
     Max angular momentum in pseudopotentials (lmaxx) =  3
     Waiting for input...
     Reading input from standard input

     Subspace diagonalization in iterative solution of the eigenvalue problem:
     scalapack distributed-memory algorithm (size of sub-group:  3*  3 procs)

 
     Parallelization info
     --------------------
     sticks:   dense  smooth     PW     G-vecs:    dense   smooth      PW
     Min          27      27      8                 1703     1703     266
     Max          28      28      9                 1718     1718     277
     Sum         559     559    163                34297    34297    5431
 


     bravais-lattice index     =            0
     lattice parameter (alat)  =       7.1265  a.u.
     unit-cell volume          =    1002.7881 (a.u.)^3
     number of atoms/cell      =            4
     number of atomic types    =            1
     number of electrons       =       100.00
     number of Kohn-Sham states=           60
     kinetic-energy cutoff     =      40.0000  Ry
     charge density cutoff     =     160.0000  Ry
     convergence threshold     =      1.0E-04
     mixing beta               =       0.7000
     number of iterations used =            8  plain     mixing
     Exchange-correlation      = SLA-PZ-NOGX-NOGC ( 1 1 0 0 0)
     EXX-fraction              =        0.00
     nstep                     =           50


     celldm(1)=   7.126518  celldm(2)=   0.000000  celldm(3)=   0.000000
     celldm(4)=   0.000000  celldm(5)=   0.000000  celldm(6)=   0.000000

     crystal axes: (cart. coord. in units of alat)
               a(1) = (   1.000000   0.000000   0.000000 )  
               a(2) = (  -0.500000   0.866025   0.000000 )  
               a(3) = (   0.000000   0.000000   3.199236 )  

     reciprocal axes: (cart. coord. in units 2 pi/alat)
               b(1) = (  1.000000  0.577350  0.000000 )  
               b(2) = (  0.000000  1.154701  0.000000 )  
               b(3) = (  0.000000  0.000000  0.312575 )  


     PseudoPot. # 1 for Lu read from file:
     /home/cwx6513/pp.La/La.UPF
     MD5 check sum: 4fc038260c66a0bf25fb4835376efb80
     Pseudo is Norm-conserving, Zval = 25.0
     Generated in analytical, separable form
     Using radial grid of 1271 points,  6 beta functions with: 
                l(1) =   0
                l(2) =   0
                l(3) =   1
                l(4) =   1
                l(5) =   2
                l(6) =   3

     atomic species   valence    mass     pseudopotential
        La            25.00   138.90500     Lu( 1.00)

     24 Sym. Ops., with inversion, found (12 have fractional translation)



   Cartesian axes

     site n.     atom                  positions (alat units)
         1           La  tau(   1) = (   0.0000000   0.0000000   0.0000000  )
         2           La  tau(   2) = (   0.0000000   0.0000000   1.5996182  )
         3           La  tau(   3) = (   0.5000005   0.2886748   2.3994273  )
         4           La  tau(   4) = (  -0.0000005   0.5773506   0.7998091  )

     number of k points=    12  gaussian smearing, width (Ry)=  0.1000
                       cart. coord. in units 2pi/alat
        k(    1) = (   0.0000000   0.0000000   0.0000000), wk =   0.0833333
        k(    2) = (   0.0000000   0.0000000   0.0781436), wk =   0.1666667
        k(    3) = (   0.0000000   0.0000000  -0.1562873), wk =   0.0833333
        k(    4) = (   0.0000000   0.3849002   0.0000000), wk =   0.1666667
        k(    5) = (   0.0000000   0.3849002   0.0781436), wk =   0.3333333
        k(    6) = (   0.0000000   0.3849002  -0.1562873), wk =   0.1666667
        k(    7) = (  -0.5000000  -0.2886751   0.0000000), wk =   0.0833333
        k(    8) = (  -0.5000000  -0.2886751   0.0781436), wk =   0.1666667
        k(    9) = (  -0.5000000  -0.2886751  -0.1562873), wk =   0.0833333
        k(   10) = (  -0.5000000   0.0962250   0.0000000), wk =   0.1666667
        k(   11) = (  -0.5000000   0.0962250   0.0781436), wk =   0.3333333
        k(   12) = (  -0.5000000   0.0962250  -0.1562873), wk =   0.1666667

     Dense  grid:    34297 G-vectors     FFT dimensions: (  30,  30,  96)

     Largest allocated arrays     est. size (Mb)     dimensions
        Kohn-Sham Wavefunctions         0.21 Mb     (    234,   60)
        NL pseudopotentials             0.29 Mb     (    234,   80)
        Each V/rho on FFT grid          0.07 Mb     (   4500)
        Each G-vector array             0.01 Mb     (   1716)
        G-vector shells                 0.01 Mb     (   1716)
     Largest temporary arrays     est. size (Mb)     dimensions
        Each subspace H/S matrix        0.01 Mb     (  20,  20)
        Each <psi_i|beta_j> matrix      0.07 Mb     (     80,   60)
        Arrays for rho mixing           0.55 Mb     (   4500,   8)

     Initial potential from superposition of free atoms

     Starting from uniform charge
     Starting wfc are    0 randomized atomic wfcs

     total cpu time spent up to now is        1.6 secs

     Self-consistent Calculation

     iteration #  1     ecut=    40.00 Ry     beta=0.70
     CG style diagonalization
     ethr =  1.00E-02,  avg # of iterations = 19.2

     total cpu time spent up to now is        7.5 secs

     total energy              =   -1600.22830221 Ry
     Harris-Foulkes estimate   =   -2536.31153222 Ry
     estimated scf accuracy    <    1152.76893997 Ry

     iteration #  2     ecut=    40.00 Ry     beta=0.70
     CG style diagonalization
     ethr =  1.00E-02,  avg # of iterations =  7.4

     total cpu time spent up to now is        9.6 secs

     total energy              =   -1806.48016115 Ry
     Harris-Foulkes estimate   =   -1835.82257200 Ry
     estimated scf accuracy    <      42.94586547 Ry

     iteration #  3     ecut=    40.00 Ry     beta=0.70
     CG style diagonalization
     ethr =  1.00E-02,  avg # of iterations =  4.4

     total cpu time spent up to now is       10.8 secs

     total energy              =   -1814.00275748 Ry
     Harris-Foulkes estimate   =   -1815.91261832 Ry
     estimated scf accuracy    <       2.48793282 Ry

     iteration #  4     ecut=    40.00 Ry     beta=0.70
     CG style diagonalization
     ethr =  2.49E-03,  avg # of iterations =  3.7

     total cpu time spent up to now is       11.8 secs

     total energy              =   -1814.58361110 Ry
     Harris-Foulkes estimate   =   -1815.18841684 Ry
     estimated scf accuracy    <       1.60371624 Ry

     iteration #  5     ecut=    40.00 Ry     beta=0.70
     CG style diagonalization
     ethr =  1.60E-03,  avg # of iterations =  3.2

     total cpu time spent up to now is       12.7 secs

     total energy              =   -1814.64967950 Ry
     Harris-Foulkes estimate   =   -1814.79256844 Ry
     estimated scf accuracy    <       0.20956357 Ry

     iteration #  6     ecut=    40.00 Ry     beta=0.70
     CG style diagonalization
     ethr =  2.10E-04,  avg # of iterations =  3.7

     total cpu time spent up to now is       13.8 secs

     total energy              =   -1814.70930881 Ry
     Harris-Foulkes estimate   =   -1814.70945187 Ry
     estimated scf accuracy    <       0.00220690 Ry

     iteration #  7     ecut=    40.00 Ry     beta=0.70
     CG style diagonalization
     c_bands:  1 eigenvalues not converged
     c_bands:  1 eigenvalues not converged
     ethr =  2.21E-06,  avg # of iterations =  5.1

     total cpu time spent up to now is       15.2 secs

     total energy              =   -1814.71107040 Ry
     Harris-Foulkes estimate   =   -1814.71189459 Ry
     estimated scf accuracy    <       0.00320899 Ry

     iteration #  8     ecut=    40.00 Ry     beta=0.70
     CG style diagonalization
     ethr =  2.21E-06,  avg # of iterations =  3.0

     total cpu time spent up to now is       16.0 secs

     total energy              =   -1814.71011084 Ry
     Harris-Foulkes estimate   =   -1814.71113994 Ry
     estimated scf accuracy    <       0.00168148 Ry

     iteration #  9     ecut=    40.00 Ry     beta=0.70
     CG style diagonalization
     ethr =  1.68E-06,  avg # of iterations =  3.6

     total cpu time spent up to now is       17.1 secs

     End of self-consistent calculation

          k = 0.0000 0.0000 0.0000 (  4275 PWs)   bands (ev):

  -120.5717-120.5069-120.4174-120.3937 -75.9655 -75.9655 -75.9579 -75.9478
   -75.9478 -75.9471 -75.9471 -75.9305 -75.9305 -75.9230 -75.9109 -75.8994
   -15.0778 -15.0778 -15.0761 -15.0761 -15.0667 -15.0667 -15.0646 -15.0646
   -15.0439 -15.0359 -15.0329 -15.0308 -15.0308 -15.0305 -15.0087 -15.0087
   -15.0080 -15.0080 -14.9867 -14.9867   0.6616   1.5068   1.5232   2.8688
     8.5485  11.8553  11.8648  14.6902  14.6902  15.2476  15.2476  15.2492
    15.2492  15.8945  15.8945  16.2307  19.8363  20.1649  20.6613  21.0609
    21.2046  21.2810  22.4214  22.4812

          k = 0.0000 0.0000 0.0781 (  4252 PWs)   bands (ev):

  -120.5290-120.4821-120.4087-120.3584 -75.9591 -75.9591 -75.9478 -75.9478
   -75.9402 -75.9377 -75.9377 -75.9314 -75.9280 -75.9280 -75.9048 -75.8925
   -15.0770 -15.0770 -15.0760 -15.0760 -15.0662 -15.0662 -15.0642 -15.0642
   -15.0412 -15.0381 -15.0329 -15.0301 -15.0254 -15.0254 -15.0144 -15.0144
   -14.9994 -14.9994 -14.9875 -14.9875   0.7266   1.1598   1.9401   2.7293
     8.8186  10.6023  13.2290  14.7297  14.7298  15.0264  15.0264  15.4837
    15.4837  15.7413  15.8420  15.8420  19.8750  20.1057  20.6498  20.9968
    21.2604  21.5034  22.4580  22.4640

          k = 0.0000 0.0000-0.1563 (  4282 PWs)   bands (ev):

  -120.5256-120.5256-120.4345-120.4345 -75.9577 -75.9577 -75.9577 -75.9577
   -75.9389 -75.9389 -75.9374 -75.9374 -75.9374 -75.9374 -75.9155 -75.9155
   -15.0773 -15.0773 -15.0773 -15.0773 -15.0665 -15.0665 -15.0665 -15.0665
   -15.0432 -15.0432 -15.0343 -15.0343 -15.0218 -15.0218 -15.0218 -15.0218
   -14.9921 -14.9921 -14.9921 -14.9921   0.8828   0.8828   2.3718   2.3718
     9.5498   9.5498  14.5949  14.5949  14.8455  14.8455  14.8455  14.8455
    15.6939  15.6939  15.6939  15.6939  19.9758  19.9758  20.7557  20.7557
    21.6043  21.6043  22.3154  22.3155

          k = 0.0000 0.3849 0.0000 (  4286 PWs)   bands (ev):

  -120.5898-120.4905-120.4755-120.4321 -75.9695 -75.9694 -75.9619 -75.9518
   -75.9487 -75.9474 -75.9440 -75.9397 -75.9368 -75.9176 -75.9172 -75.9058
   -15.0909 -15.0822 -15.0721 -15.0658 -15.0507 -15.0501 -15.0450 -15.0371
   -15.0346 -15.0336 -15.0302 -15.0221 -15.0160 -15.0135 -15.0096 -15.0085
   -15.0051 -14.9892 -14.9873 -14.9818   1.8826   2.5724   2.5792   3.4826
     9.7447   9.7560  10.3414  10.4497  11.4353  13.0088  13.0688  13.4805
    13.9139  13.9161  14.7589  15.1598  18.5130  18.8344  19.1613  19.9013
    20.6107  21.4647  21.7700  22.3680

          k = 0.0000 0.3849 0.0781 (  4289 PWs)   bands (ev):

  -120.5664-120.5006-120.4757-120.4589 -75.9721 -75.9674 -75.9616 -75.9575
   -75.9462 -75.9447 -75.9426 -75.9418 -75.9366 -75.9247 -75.9128 -75.9094
   -15.0903 -15.0847 -15.0716 -15.0673 -15.0499 -15.0480 -15.0439 -15.0387
   -15.0342 -15.0342 -15.0301 -15.0228 -15.0225 -15.0190 -15.0068 -14.9999
   -14.9996 -14.9920 -14.9881 -14.9839   1.9269   2.2916   2.8879   3.4048
     9.5879   9.9263  10.1227  11.0194  11.1833  12.5436  13.0706  13.5410
    13.9353  14.3336  14.7467  15.0436  18.5589  18.7460  19.4091  19.7956
    20.5923  20.9939  21.8045  22.7663

          k = 0.0000 0.3849-0.1563 (  4276 PWs)   bands (ev):

  -120.5152-120.5152-120.4543-120.4543 -75.9668 -75.9668 -75.9588 -75.9588
   -75.9431 -75.9431 -75.9405 -75.9405 -75.9247 -75.9247 -75.9082 -75.9082
   -15.0881 -15.0881 -15.0688 -15.0688 -15.0462 -15.0462 -15.0418 -15.0418
   -15.0318 -15.0318 -15.0295 -15.0295 -15.0223 -15.0223 -14.9983 -14.9983
   -14.9916 -14.9916 -14.9901 -14.9901   2.0710   2.0710   3.1884   3.1884
     9.6521   9.6521  10.6421  10.6421  11.7755  11.7755  13.2514  13.2514
    14.4771  14.4771  14.7384  14.7384  18.6602  18.6602  19.7838  19.7838
    20.3879  20.3879  22.4588  22.4588

          k =-0.5000-0.2887 0.0000 (  4296 PWs)   bands (ev):

  -120.5271-120.5204-120.5176-120.4781 -75.9780 -75.9655 -75.9644 -75.9611
   -75.9576 -75.9551 -75.9493 -75.9432 -75.9319 -75.9164 -75.9132 -75.9031
   -15.0969 -15.0884 -15.0766 -15.0684 -15.0556 -15.0529 -15.0529 -15.0286
   -15.0277 -15.0222 -15.0211 -15.0182 -15.0124 -15.0094 -15.0063 -15.0049
   -14.9963 -14.9809 -14.9797 -14.9755   2.6900   3.0371   3.1027   3.5305
     8.6041   8.8063   9.6715   9.9961  11.5132  12.0934  12.6316  13.5643
    13.5665  13.7542  14.4952  14.8521  18.1497  18.1668  19.1556  19.6041
    19.8076  20.4872  21.2736  22.4227

          k =-0.5000-0.2887 0.0781 (  4292 PWs)   bands (ev):

  -120.5371-120.5322-120.4817-120.4731 -75.9695 -75.9685 -75.9605 -75.9598
   -75.9533 -75.9513 -75.9445 -75.9377 -75.9305 -75.9257 -75.9148 -75.9114
   -15.0969 -15.0901 -15.0725 -15.0685 -15.0560 -15.0510 -15.0474 -15.0321
   -15.0302 -15.0298 -15.0198 -15.0198 -15.0093 -15.0084 -15.0009 -15.0001
   -14.9935 -14.9834 -14.9827 -14.9793   2.7251   2.9241   3.2290   3.4827
     8.6958   8.8935   9.4885   9.7734  11.8163  12.3362  12.6956  13.1802
    13.5684  13.9991  14.1997  14.7332  18.2099  18.3468  18.9486  19.7801
    20.1601  20.2871  21.8763  22.6225

          k =-0.5000-0.2887-0.1563 (  4284 PWs)   bands (ev):

  -120.5230-120.5230-120.4684-120.4684 -75.9729 -75.9729 -75.9574 -75.9574
   -75.9538 -75.9538 -75.9385 -75.9385 -75.9217 -75.9217 -75.9091 -75.9091
   -15.0929 -15.0929 -15.0689 -15.0689 -15.0532 -15.0532 -15.0407 -15.0407
   -15.0338 -15.0338 -15.0202 -15.0202 -15.0089 -15.0089 -14.9900 -14.9900
   -14.9897 -14.9897 -14.9838 -14.9838   2.8068   2.8068   3.3772   3.3772
     8.9093   8.9093   9.4218   9.4218  12.3515  12.3515  12.8831  12.8831
    13.6287  13.6287  14.4177  14.4177  18.3634  18.3634  19.2101  19.2101
    20.7308  20.7309  21.9246  21.9247

          k =-0.5000 0.0962 0.0000 (  4288 PWs)   bands (ev):

  -120.5211-120.5134-120.4989-120.4760 -75.9705 -75.9701 -75.9584 -75.9573
   -75.9513 -75.9466 -75.9430 -75.9365 -75.9278 -75.9269 -75.9172 -75.9123
   -15.0789 -15.0713 -15.0595 -15.0592 -15.0555 -15.0501 -15.0473 -15.0371
   -15.0361 -15.0314 -15.0286 -15.0243 -15.0222 -15.0179 -15.0047 -15.0041
   -14.9912 -14.9873 -14.9826 -14.9811   2.5826   3.0536   3.0678   3.5806
     9.1647   9.3598  10.0826  10.3503  10.9601  11.6399  12.0439  12.2792
    13.3665  13.5200  14.2096  14.2735  18.9410  19.7337  19.9165  20.2913
    20.9138  20.9299  22.1247  22.4682

          k =-0.5000 0.0962 0.0781 (  4286 PWs)   bands (ev):

  -120.5168-120.5126-120.4933-120.4758 -75.9713 -75.9694 -75.9588 -75.9570
   -75.9520 -75.9479 -75.9421 -75.9383 -75.9266 -75.9251 -75.9138 -75.9109
   -15.0778 -15.0735 -15.0598 -15.0596 -15.0534 -15.0515 -15.0450 -15.0373
   -15.0359 -15.0315 -15.0288 -15.0264 -15.0200 -15.0171 -15.0065 -14.9989
   -14.9927 -14.9869 -14.9851 -14.9804   2.6201   2.8734   3.2541   3.5391
     9.2005   9.4398   9.8769  10.1957  11.3229  11.5798  12.1439  12.3906
    13.0523  13.3878  14.1684  14.4702  19.0992  19.3702  20.1529  20.4793
    20.6039  21.4472  21.8328  22.3599

          k =-0.5000 0.0962-0.1563 (  4292 PWs)   bands (ev):

  -120.5260-120.5260-120.4875-120.4875 -75.9708 -75.9708 -75.9611 -75.9611
   -75.9524 -75.9524 -75.9411 -75.9411 -75.9261 -75.9261 -75.9128 -75.9128
   -15.0764 -15.0764 -15.0592 -15.0592 -15.0529 -15.0529 -15.0420 -15.0420
   -15.0326 -15.0326 -15.0295 -15.0295 -15.0192 -15.0192 -15.0020 -15.0020
   -14.9909 -14.9909 -14.9817 -14.9817   2.7206   2.7206   3.4196   3.4196
     9.3546   9.3546   9.9168   9.9168  11.5985  11.5985  12.3800  12.3800
    12.9460  12.9460  14.4071  14.4071  19.2202  19.2202  20.3414  20.3414
    21.0478  21.0478  22.0862  22.0863

     the Fermi energy is    14.8277 ev

!    total energy              =   -1814.71046972 Ry
     Harris-Foulkes estimate   =   -1814.71048430 Ry
     estimated scf accuracy    <       0.00001935 Ry

     The total energy is the sum of the following terms:

     one-electron contribution =   -1017.07373794 Ry
     hartree contribution      =     481.50232006 Ry
     xc contribution           =    -133.85617272 Ry
     ewald contribution        =   -1145.05806947 Ry
     smearing contrib. (-TS)   =      -0.22480964 Ry

     convergence has been achieved in   9 iterations

     Forces acting on atoms (Ry/au):

     atom    1 type  1   force =     0.00000000    0.00000000    0.00000000
     atom    2 type  1   force =     0.00000000    0.00000000    0.00000000
     atom    3 type  1   force =     0.00000000    0.00000000    0.00000000
     atom    4 type  1   force =     0.00000000    0.00000000    0.00000000

     Total force =     0.000000     Total SCF correction =     0.000000


     entering subroutine stress ...

          total   stress  (Ry/bohr**3)                   (kbar)     P= -774.55
  -0.00537129   0.00000000   0.00000000       -790.14      0.00      0.00
   0.00000000  -0.00537129   0.00000000          0.00   -790.14      0.00
   0.00000000   0.00000000  -0.00505326          0.00      0.00   -743.36


     BFGS Geometry Optimization

     number of scf cycles    =   1
     number of bfgs steps    =   0

     enthalpy new            =   -1814.7104697203 Ry

     new trust radius        =       0.5000000000 bohr
     new conv_thr            =       0.0001000000 Ry

     new unit-cell volume =    787.51991 a.u.^3 (   116.69841 Ang^3 )

CELL_PARAMETERS (alat=  7.12651817)
   0.921053036   0.000000000   0.000000000
  -0.460526518   0.797655327   0.000000000
   0.000000000   0.000000000   2.961620742

ATOMIC_POSITIONS (crystal)
La       0.000000000   0.000000000   0.000000000
La       0.000000000   0.000000000   0.500000000
La       0.666667000   0.333333000   0.750000000
La       0.333333000   0.666667000   0.250000000



     Writing output data file Element-La.q.save
     NEW-OLD atomic charge density approx. for the potential
     NEW k-points:
        k(    1) = (   0.0000000   0.0000000   0.0000000), wk =   0.0833333
        k(    2) = (   0.0000000   0.0000000   0.0844132), wk =   0.1666667
        k(    3) = (   0.0000000   0.0000000  -0.1688265), wk =   0.0833333
        k(    4) = (   0.0000000   0.4178914   0.0000000), wk =   0.1666667
        k(    5) = (   0.0000000   0.4178914   0.0844132), wk =   0.3333333
        k(    6) = (   0.0000000   0.4178914  -0.1688265), wk =   0.1666667
        k(    7) = (  -0.5428569  -0.3134186   0.0000000), wk =   0.0833333
        k(    8) = (  -0.5428569  -0.3134186   0.0844132), wk =   0.1666667
        k(    9) = (  -0.5428569  -0.3134186  -0.1688265), wk =   0.0833333
        k(   10) = (  -0.5428569   0.1044729   0.0000000), wk =   0.1666667
        k(   11) = (  -0.5428569   0.1044729   0.0844132), wk =   0.3333333
        k(   12) = (  -0.5428569   0.1044729  -0.1688265), wk =   0.1666667

     total cpu time spent up to now is       17.5 secs

     Self-consistent Calculation

     iteration #  1     ecut=    40.00 Ry     beta=0.70
     CG style diagonalization
     c_bands:  1 eigenvalues not converged
     c_bands:  3 eigenvalues not converged
     ethr =  1.00E-06,  avg # of iterations = 18.5

     total cpu time spent up to now is       22.6 secs

     total energy              =   -1806.15591225 Ry
     Harris-Foulkes estimate   =   -1827.86582561 Ry
     estimated scf accuracy    <      26.25247886 Ry

     iteration #  2     ecut=    40.00 Ry     beta=0.70
     CG style diagonalization
     ethr =  1.00E-02,  avg # of iterations =  4.6

     total cpu time spent up to now is       23.9 secs

     total energy              =   -1814.88062537 Ry
     Harris-Foulkes estimate   =   -1817.27212347 Ry
     estimated scf accuracy    <       3.40607507 Ry

     iteration #  3     ecut=    40.00 Ry     beta=0.70
     CG style diagonalization
     ethr =  3.41E-03,  avg # of iterations =  3.6

     total cpu time spent up to now is       24.9 secs

     total energy              =   -1815.56928872 Ry
     Harris-Foulkes estimate   =   -1815.58083203 Ry
     estimated scf accuracy    <       0.01578542 Ry

     iteration #  4     ecut=    40.00 Ry     beta=0.70
     CG style diagonalization
     ethr =  1.58E-05,  avg # of iterations =  5.1

     total cpu time spent up to now is       26.4 secs

     total energy              =   -1815.59222334 Ry
     Harris-Foulkes estimate   =   -1815.59484374 Ry
     estimated scf accuracy    <       0.00539541 Ry

     iteration #  5     ecut=    40.00 Ry     beta=0.70
     CG style diagonalization
     ethr =  5.40E-06,  avg # of iterations =  3.1

     total cpu time spent up to now is       27.5 secs

     total energy              =   -1815.59216500 Ry
     Harris-Foulkes estimate   =   -1815.59271444 Ry
     estimated scf accuracy    <       0.00092890 Ry

     iteration #  6     ecut=    40.00 Ry     beta=0.70
     CG style diagonalization
     ethr =  9.29E-07,  avg # of iterations =  4.1

     total cpu time spent up to now is       28.7 secs

     total energy              =   -1815.59249836 Ry
     Harris-Foulkes estimate   =   -1815.59255197 Ry
     estimated scf accuracy    <       0.00014788 Ry

     iteration #  7     ecut=    40.00 Ry     beta=0.70
     CG style diagonalization
     ethr =  1.48E-07,  avg # of iterations =  3.2

     total cpu time spent up to now is       29.5 secs

     End of self-consistent calculation

          k = 0.0000 0.0000 0.0000 (  4275 PWs)   bands (ev):

  -115.9851-115.9692-115.9092-115.9048 -70.7648 -70.7648 -70.7601 -70.7601
   -70.7453 -70.7453 -70.7447 -70.7397 -70.7397 -70.7296 -70.6946 -70.6875
    -9.8244  -9.8244  -9.8228  -9.8228  -9.8120  -9.8120  -9.8050  -9.8050
    -9.7857  -9.7820  -9.7661  -9.7645  -9.7320  -9.7320  -9.6925  -9.6925
    -9.6663  -9.6663  -9.6207  -9.6207   4.1174   5.3077   5.3227   7.5813
    12.2369  17.0197  17.0250  20.7889  20.7890  21.6166  21.6166  21.6397
    21.6397  22.6155  22.6155  23.0098  25.2543  25.3566  25.3989  25.4117
    26.5993  27.2634  27.5577  28.4164

          k = 0.0000 0.0000 0.0844 (  4252 PWs)   bands (ev):

  -115.9679-115.9529-115.9047-115.8874 -70.7592 -70.7591 -70.7557 -70.7557
   -70.7394 -70.7394 -70.7374 -70.7374 -70.7312 -70.7293 -70.6897 -70.6838
    -9.8228  -9.8228  -9.8203  -9.8203  -9.8141  -9.8141  -9.8077  -9.8077
    -9.7852  -9.7826  -9.7658  -9.7647  -9.7280  -9.7280  -9.7029  -9.7029
    -9.6546  -9.6546  -9.6251  -9.6251   4.1980   4.8016   5.9510   7.2940
    12.6892  15.3060  18.8624  20.8471  20.8471  21.2928  21.2928  21.9856
    21.9856  22.3078  22.5344  22.5344  25.2700  25.3478  25.3521  25.3731
    26.6690  27.0706  27.8221  28.3541

          k = 0.0000 0.0000-0.1688 (  4282 PWs)   bands (ev):

  -115.9694-115.9694-115.9225-115.9225 -70.7603 -70.7603 -70.7603 -70.7603
   -70.7442 -70.7442 -70.7442 -70.7442 -70.7334 -70.7334 -70.7036 -70.7036
    -9.8188  -9.8188  -9.8188  -9.8188  -9.8141  -9.8141  -9.8141  -9.8141
    -9.7841  -9.7841  -9.7653  -9.7653  -9.7174  -9.7174  -9.7174  -9.7174
    -9.6375  -9.6375  -9.6375  -9.6375   4.4210   4.4210   6.6522   6.6522
    13.8109  13.8109  20.7089  20.7089  21.0197  21.0197  21.0198  21.0198
    22.3065  22.3065  22.3066  22.3066  25.2973  25.2973  25.3393  25.3393
    26.8194  26.8194  28.1643  28.1645

          k = 0.0000 0.4179 0.0000 (  4286 PWs)   bands (ev):

  -115.9989-115.9615-115.9342-115.9254 -70.7766 -70.7703 -70.7664 -70.7616
   -70.7590 -70.7493 -70.7482 -70.7453 -70.7384 -70.7213 -70.6993 -70.6963
    -9.8749  -9.8432  -9.8413  -9.8091  -9.7997  -9.7838  -9.7773  -9.7558
    -9.7225  -9.7129  -9.7036  -9.7001  -9.6981  -9.6885  -9.6846  -9.6829
    -9.6681  -9.6323  -9.6306  -9.6119   5.8971   6.9652   6.9817   8.6526
    13.9712  14.0643  14.8526  14.8690  16.6840  18.2677  18.3291  18.8813
    19.5632  19.5666  20.5987  21.4546  23.6417  23.9928  24.1989  25.0395
    26.2685  26.4250  27.4279  27.8156

          k = 0.0000 0.4179 0.0844 (  4289 PWs)   bands (ev):

  -115.9878-115.9604-115.9436-115.9343 -70.7742 -70.7738 -70.7672 -70.7628
   -70.7558 -70.7552 -70.7523 -70.7487 -70.7291 -70.7193 -70.7045 -70.6963
    -9.8727  -9.8554  -9.8287  -9.8110  -9.7953  -9.7782  -9.7759  -9.7612
    -9.7403  -9.7260  -9.7049  -9.7013  -9.6912  -9.6865  -9.6808  -9.6664
    -9.6543  -9.6410  -9.6326  -9.6175   5.9664   6.5198   7.5034   8.4812
    13.7872  14.2637  14.5962  15.6455  16.2567  17.5893  18.3549  19.0246
    19.5786  20.1788  20.6737  21.2672  23.6894  23.8565  24.4862  24.9359
    25.7168  26.4076  27.4652  28.1472

          k = 0.0000 0.4179-0.1688 (  4276 PWs)   bands (ev):

  -115.9640-115.9640-115.9332-115.9332 -70.7706 -70.7706 -70.7645 -70.7645
   -70.7518 -70.7518 -70.7509 -70.7509 -70.7186 -70.7186 -70.6969 -70.6969
    -9.8660  -9.8660  -9.8174  -9.8174  -9.7849  -9.7849  -9.7624  -9.7624
    -9.7508  -9.7508  -9.7012  -9.7012  -9.6902  -9.6902  -9.6598  -9.6598
    -9.6445  -9.6445  -9.6332  -9.6332   6.1791   6.1791   8.0465   8.0465
    13.8930  13.8930  15.4121  15.4121  16.5861  16.5861  18.6110  18.6110
    20.3674  20.3674  20.7897  20.7897  23.7801  23.7801  24.8708  24.8708
    25.5897  25.5897  28.1315  28.1318

          k =-0.5429-0.3134 0.0000 (  4296 PWs)   bands (ev):

  -115.9749-115.9676-115.9559-115.9470 -70.7794 -70.7756 -70.7753 -70.7679
   -70.7640 -70.7620 -70.7560 -70.7550 -70.7193 -70.7190 -70.6973 -70.6946
    -9.8923  -9.8510  -9.8492  -9.8164  -9.8121  -9.7917  -9.7913  -9.7576
    -9.7245  -9.7087  -9.7038  -9.6715  -9.6633  -9.6615  -9.6597  -9.6556
    -9.6475  -9.6094  -9.6061  -9.6025   7.3266   7.8130   8.0163   8.6851
    12.3174  12.5826  13.9101  14.3479  16.1494  17.0060  17.7275  19.0440
    19.0470  19.3577  20.2792  20.9314  23.3436  23.4460  24.1550  25.0238
    25.0643  25.2502  27.4052  28.4074

          k =-0.5429-0.3134 0.0844 (  4292 PWs)   bands (ev):

  -115.9795-115.9677-115.9476-115.9426 -70.7769 -70.7726 -70.7671 -70.7659
   -70.7629 -70.7608 -70.7499 -70.7497 -70.7246 -70.7197 -70.7048 -70.6993
    -9.8891  -9.8663  -9.8330  -9.8135  -9.8123  -9.7909  -9.7851  -9.7640
    -9.7393  -9.7387  -9.6773  -9.6622  -9.6585  -9.6565  -9.6554  -9.6533
    -9.6451  -9.6156  -9.6113  -9.6084   7.3732   7.6716   8.1777   8.6020
    12.4642  12.7440  13.6011  14.0105  16.5980  17.3475  17.8172  18.4993
    19.0545  19.6688  19.8564  20.7516  23.3939  23.5841  24.0501  24.7580
    25.5696  25.7762  27.6020  28.5629

          k =-0.5429-0.3134-0.1688 (  4284 PWs)   bands (ev):

  -115.9681-115.9681-115.9397-115.9397 -70.7795 -70.7795 -70.7651 -70.7651
   -70.7612 -70.7612 -70.7472 -70.7472 -70.7160 -70.7160 -70.6974 -70.6974
    -9.8798  -9.8798  -9.8197  -9.8197  -9.8003  -9.8003  -9.7665  -9.7665
    -9.7597  -9.7597  -9.6649  -9.6649  -9.6558  -9.6558  -9.6402  -9.6402
    -9.6317  -9.6317  -9.6190  -9.6190   7.4960   7.4960   8.4100   8.4100
    12.8148  12.8148  13.4605  13.4605  17.3689  17.3689  18.0812  18.0812
    19.0748  19.0748  20.2812  20.2812  23.5257  23.5257  24.3348  24.3348
    26.2995  26.2995  27.7214  27.7214

          k =-0.5429 0.1045 0.0000 (  4288 PWs)   bands (ev):

  -115.9661-115.9652-115.9569-115.9425 -70.7780 -70.7735 -70.7668 -70.7638
   -70.7609 -70.7530 -70.7514 -70.7483 -70.7246 -70.7184 -70.7045 -70.7023
    -9.8482  -9.8254  -9.8120  -9.7971  -9.7939  -9.7921  -9.7693  -9.7629
    -9.7428  -9.7349  -9.7103  -9.6925  -9.6890  -9.6816  -9.6739  -9.6624
    -9.6388  -9.6262  -9.6156  -9.6107   7.0391   7.8480   7.8967   8.8270
    13.1583  13.4458  14.3035  14.9665  15.4769  16.3764  16.8958  17.2104
    18.6235  19.0599  19.8593  19.9972  23.9822  25.1027  25.5915  25.7978
    26.1620  26.1963  27.8524  28.0459

          k =-0.5429 0.1045 0.0844 (  4286 PWs)   bands (ev):

  -115.9681-115.9608-115.9523-115.9437 -70.7789 -70.7730 -70.7654 -70.7649
   -70.7601 -70.7549 -70.7520 -70.7490 -70.7208 -70.7195 -70.7019 -70.6998
    -9.8462  -9.8316  -9.8041  -9.8005  -9.7937  -9.7882  -9.7724  -9.7605
    -9.7580  -9.7177  -9.7139  -9.6908  -9.6874  -9.6839  -9.6822  -9.6531
    -9.6424  -9.6269  -9.6158  -9.6102   7.0992   7.5382   8.2256   8.7514
    13.1601  13.5725  14.0536  14.7488  15.9779  16.2631  17.0096  17.3900
    18.3199  18.7623  19.7713  20.3149  24.1353  24.7573  25.6944  25.8095
    26.0510  26.7028  27.7805  28.1299

          k =-0.5429 0.1045-0.1688 (  4292 PWs)   bands (ev):

  -115.9702-115.9702-115.9492-115.9492 -70.7761 -70.7761 -70.7683 -70.7683
   -70.7604 -70.7604 -70.7505 -70.7505 -70.7213 -70.7213 -70.7013 -70.7013
    -9.8402  -9.8402  -9.7995  -9.7995  -9.7894  -9.7894  -9.7743  -9.7743
    -9.7392  -9.7392  -9.6967  -9.6967  -9.6845  -9.6845  -9.6712  -9.6712
    -9.6319  -9.6319  -9.6129  -9.6129   7.2709   7.2709   8.5357   8.5357
    13.3468  13.3468  14.3029  14.3029  16.2974  16.2974  17.3846  17.3846
    18.1459  18.1459  20.1751  20.1751  24.3866  24.3866  25.8620  25.8620
    26.3567  26.3567  28.2626  28.2626

     the Fermi energy is    20.7887 ev

!    total energy              =   -1815.59251343 Ry
     Harris-Foulkes estimate   =   -1815.59252842 Ry
     estimated scf accuracy    <       0.00001656 Ry

     The total energy is the sum of the following terms:

     one-electron contribution =    -863.53343512 Ry
     hartree contribution      =     424.10005442 Ry
     xc contribution           =    -134.84557578 Ry
     ewald contribution        =   -1241.14138799 Ry
     smearing contrib. (-TS)   =      -0.17216896 Ry

     convergence has been achieved in   7 iterations

     Forces acting on atoms (Ry/au):

     atom    1 type  1   force =     0.00000000    0.00000000    0.00000000
     atom    2 type  1   force =     0.00000000    0.00000000    0.00000000
     atom    3 type  1   force =     0.00000000    0.00000000    0.00000000
     atom    4 type  1   force =     0.00000000    0.00000000    0.00000000

     Total force =     0.000000     Total SCF correction =     0.000000


     entering subroutine stress ...

          total   stress  (Ry/bohr**3)                   (kbar)     P= -359.19
  -0.00276384   0.00000000   0.00000000       -406.57      0.00      0.00
   0.00000000  -0.00276384   0.00000000          0.00   -406.57      0.00
   0.00000000   0.00000000  -0.00179748          0.00      0.00   -264.42


     number of scf cycles    =   2
     number of bfgs steps    =   1

     enthalpy old            =   -1814.7104697203 Ry
     enthalpy new            =   -1815.5925134269 Ry

     CASE: enthalpy_new < enthalpy_old

     small trust_radius: resetting bfgs history

     new trust radius        =       0.3878047160 bohr
     new conv_thr            =       0.0000010000 Ry

     new unit-cell volume =    651.78363 a.u.^3 (    96.58437 Ang^3 )

CELL_PARAMETERS (alat=  7.12651817)
   0.857412040   0.000000000   0.000000000
  -0.428706020   0.742540609   0.000000000
   0.000000000   0.000000000   2.828534428

ATOMIC_POSITIONS (crystal)
La       0.000000000   0.000000000   0.000000000
La       0.000000000   0.000000000   0.500000000
La       0.666667000   0.333333000   0.750000000
La       0.333333000   0.666667000   0.250000000



     Writing output data file Element-La.q.save
     NEW-OLD atomic charge density approx. for the potential
     NEW k-points:
        k(    1) = (   0.0000000   0.0000000   0.0000000), wk =   0.0833333
        k(    2) = (   0.0000000   0.0000000   0.0883850), wk =   0.1666667
        k(    3) = (   0.0000000   0.0000000  -0.1767700), wk =   0.0833333
        k(    4) = (   0.0000000   0.4489092   0.0000000), wk =   0.1666667
        k(    5) = (   0.0000000   0.4489092   0.0883850), wk =   0.3333333
        k(    6) = (   0.0000000   0.4489092  -0.1767700), wk =   0.1666667
        k(    7) = (  -0.5831502  -0.3366819   0.0000000), wk =   0.0833333
        k(    8) = (  -0.5831502  -0.3366819   0.0883850), wk =   0.1666667
        k(    9) = (  -0.5831502  -0.3366819  -0.1767700), wk =   0.0833333
        k(   10) = (  -0.5831502   0.1122273   0.0000000), wk =   0.1666667
        k(   11) = (  -0.5831502   0.1122273   0.0883850), wk =   0.3333333
        k(   12) = (  -0.5831502   0.1122273  -0.1767700), wk =   0.1666667

     total cpu time spent up to now is       30.0 secs

     Self-consistent Calculation

     iteration #  1     ecut=    40.00 Ry     beta=0.70
     CG style diagonalization
     c_bands:  1 eigenvalues not converged
     c_bands:  1 eigenvalues not converged
     c_bands:  1 eigenvalues not converged
     c_bands:  2 eigenvalues not converged
     c_bands:  1 eigenvalues not converged
     c_bands:  3 eigenvalues not converged
     c_bands:  2 eigenvalues not converged
     ethr =  1.00E-06,  avg # of iterations = 15.2

     total cpu time spent up to now is       34.2 secs

     total energy              =   -1810.31264993 Ry
     Harris-Foulkes estimate   =   -1823.15386365 Ry
     estimated scf accuracy    <      15.61383276 Ry

     iteration #  2     ecut=    40.00 Ry     beta=0.70
     CG style diagonalization
     ethr =  1.00E-02,  avg # of iterations =  4.4

     total cpu time spent up to now is       35.5 secs

     total energy              =   -1815.35722567 Ry
     Harris-Foulkes estimate   =   -1816.60591823 Ry
     estimated scf accuracy    <       1.76653591 Ry

     iteration #  3     ecut=    40.00 Ry     beta=0.70
     CG style diagonalization
     ethr =  1.77E-03,  avg # of iterations =  3.7

     total cpu time spent up to now is       36.5 secs

     total energy              =   -1815.73342770 Ry
     Harris-Foulkes estimate   =   -1815.73838348 Ry
     estimated scf accuracy    <       0.00700841 Ry

     iteration #  4     ecut=    40.00 Ry     beta=0.70
     CG style diagonalization
     c_bands:  1 eigenvalues not converged
     ethr =  7.01E-06,  avg # of iterations =  5.7

     total cpu time spent up to now is       38.1 secs

     total energy              =   -1815.74687277 Ry
     Harris-Foulkes estimate   =   -1815.74809413 Ry
     estimated scf accuracy    <       0.00295182 Ry

     iteration #  5     ecut=    40.00 Ry     beta=0.70
     CG style diagonalization
     c_bands:  1 eigenvalues not converged
     c_bands:  1 eigenvalues not converged
     ethr =  2.95E-06,  avg # of iterations =  3.4

     total cpu time spent up to now is       39.7 secs

     total energy              =   -1815.74680609 Ry
     Harris-Foulkes estimate   =   -1815.74723442 Ry
     estimated scf accuracy    <       0.00080456 Ry

     iteration #  6     ecut=    40.00 Ry     beta=0.70
     CG style diagonalization
     ethr =  8.05E-07,  avg # of iterations =  3.9

     total cpu time spent up to now is       40.7 secs

     total energy              =   -1815.74701149 Ry
     Harris-Foulkes estimate   =   -1815.74702299 Ry
     estimated scf accuracy    <       0.00003919 Ry

     iteration #  7     ecut=    40.00 Ry     beta=0.70
     CG style diagonalization
     ethr =  3.92E-08,  avg # of iterations =  3.7

     total cpu time spent up to now is       42.0 secs

     total energy              =   -1815.74701851 Ry
     Harris-Foulkes estimate   =   -1815.74702291 Ry
     estimated scf accuracy    <       0.00000766 Ry

     iteration #  8     ecut=    40.00 Ry     beta=0.70
     CG style diagonalization
     ethr =  7.66E-09,  avg # of iterations =  3.9

     total cpu time spent up to now is       43.1 secs

     End of self-consistent calculation

          k = 0.0000 0.0000 0.0000 (  4275 PWs)   bands (ev):

  -111.1514-111.1486-111.1150-111.1002 -65.7916 -65.7916 -65.7829 -65.7829
   -65.7682 -65.7682 -65.7614 -65.7590 -65.7590 -65.7545 -65.7110 -65.7003
    -4.8949  -4.8949  -4.8856  -4.8856  -4.8828  -4.8773  -4.8738  -4.8738
    -4.8543  -4.8543  -4.8457  -4.8446  -4.7225  -4.7225  -4.6587  -4.6587
    -4.6087  -4.6087  -4.5329  -4.5329   7.3464   8.7760   8.7951  11.8483
    15.7254  21.6881  21.6909  26.7567  26.7568  27.7767  27.7767  27.9405
    27.9405  28.7113  28.9706  29.0283  29.1218  29.1218  29.4053  29.4780
    31.8958  31.9799  32.6404  33.7619

          k = 0.0000 0.0000 0.0884 (  4252 PWs)   bands (ev):

  -111.1431-111.1430-111.1022-111.1003 -65.7849 -65.7849 -65.7842 -65.7842
   -65.7603 -65.7603 -65.7588 -65.7588 -65.7534 -65.7529 -65.7031 -65.7004
    -4.8922  -4.8922  -4.8820  -4.8813  -4.8813  -4.8781  -4.8772  -4.8772
    -4.8591  -4.8591  -4.8455  -4.8448  -4.7159  -4.7159  -4.6749  -4.6749
    -4.5901  -4.5901  -4.5405  -4.5405   7.4385   8.1599   9.5754  11.3907
    16.3721  19.6521  23.8462  26.8327  26.8328  27.4160  27.4160  27.8826
    28.3225  28.3225  29.0138  29.0151  29.0151  29.0312  29.3503  29.4177
    32.0424  32.0551  32.8582  32.9659

          k = 0.0000 0.0000-0.1768 (  4282 PWs)   bands (ev):

  -111.1484-111.1484-111.1144-111.1144 -65.7870 -65.7870 -65.7870 -65.7870
   -65.7633 -65.7633 -65.7633 -65.7633 -65.7572 -65.7572 -65.7139 -65.7139
    -4.8852  -4.8852  -4.8852  -4.8852  -4.8801  -4.8801  -4.8704  -4.8704
    -4.8704  -4.8704  -4.8452  -4.8452  -4.6985  -4.6985  -4.6985  -4.6985
    -4.5616  -4.5616  -4.5616  -4.5616   7.7065   7.7065  10.4870  10.4870
    17.8286  17.8286  25.9939  25.9939  27.0581  27.0581  27.0581  27.0581
    28.7230  28.7230  28.7230  28.7230  29.0906  29.0906  29.2534  29.2534
    32.0612  32.0612  32.9951  32.9951

          k = 0.0000 0.4489 0.0000 (  4286 PWs)   bands (ev):

  -111.1580-111.1469-111.1182-111.1140 -65.8049 -65.7990 -65.7942 -65.7904
   -65.7808 -65.7756 -65.7708 -65.7647 -65.7575 -65.7462 -65.7131 -65.7070
    -5.0189  -4.9588  -4.9528  -4.8850  -4.8768  -4.8422  -4.8220  -4.7967
    -4.6964  -4.6946  -4.6931  -4.6884  -4.6614  -4.6385  -4.6090  -4.6060
    -4.5974  -4.5576  -4.5570  -4.5187   9.6636  11.0229  11.0464  13.5068
    18.0195  18.3361  19.2677  19.4001  21.8469  23.1653  23.3851  23.7468
    24.9903  25.0021  25.8914  27.3275  28.7109  28.8367  28.9259  29.3168
    30.8266  31.2620  32.3316  32.3653

          k = 0.0000 0.4489 0.0884 (  4289 PWs)   bands (ev):

  -111.1538-111.1454-111.1231-111.1157 -65.8028 -65.7994 -65.7977 -65.7914
   -65.7791 -65.7769 -65.7743 -65.7677 -65.7521 -65.7454 -65.7139 -65.7077
    -5.0146  -4.9815  -4.9283  -4.8896  -4.8688  -4.8368  -4.8119  -4.8098
    -4.7460  -4.7409  -4.6561  -4.6512  -4.6373  -4.6306  -4.6156  -4.6079
    -4.5817  -4.5735  -4.5614  -4.5281   9.7511  10.4471  11.7483  13.2088
    17.9634  18.6526  18.9164  20.1856  21.2343  22.2236  23.4935  24.3238
    24.7914  25.7539  26.0626  27.0953  28.7239  28.7558  29.0574  29.2642
    30.3101  30.9659  32.4781  32.6681

          k = 0.0000 0.4489-0.1768 (  4276 PWs)   bands (ev):

  -111.1447-111.1447-111.1161-111.1161 -65.7974 -65.7974 -65.7956 -65.7956
   -65.7756 -65.7756 -65.7705 -65.7705 -65.7448 -65.7448 -65.7076 -65.7076
    -5.0018  -5.0018  -4.9042  -4.9042  -4.8500  -4.8500  -4.7933  -4.7933
    -4.7831  -4.7831  -4.6396  -4.6396  -4.6140  -4.6140  -4.6127  -4.6127
    -4.5840  -4.5840  -4.5529  -4.5529  10.0153  10.0153  12.5240  12.5240
    18.1821  18.1821  20.0255  20.0255  21.1727  21.1727  23.8103  23.8103
    25.8122  25.8122  26.5083  26.5083  28.7471  28.7471  29.2055  29.2055
    30.2164  30.2164  32.9175  32.9175

          k =-0.5832-0.3367 0.0000 (  4296 PWs)   bands (ev):

  -111.1517-111.1464-111.1223-111.1213 -65.8110 -65.8081 -65.7962 -65.7942
   -65.7928 -65.7839 -65.7740 -65.7723 -65.7456 -65.7415 -65.7106 -65.7054
    -5.0562  -4.9793  -4.9770  -4.9149  -4.8992  -4.8713  -4.8398  -4.8126
    -4.7458  -4.6959  -4.6749  -4.6264  -4.6165  -4.5503  -4.5498  -4.5412
    -4.5245  -4.5091  -4.5036  -4.4924  11.8443  12.3792  12.8031  13.6225
    15.8846  16.1971  17.9937  18.4477  20.5561  21.7128  22.6589  24.2614
    24.2708  24.4783  25.4325  26.4856  28.5326  28.6487  28.8324  28.8632
    29.9681  30.2471  33.5268  34.2765

          k =-0.5832-0.3367 0.0884 (  4292 PWs)   bands (ev):

  -111.1535-111.1456-111.1243-111.1192 -65.8085 -65.8057 -65.7952 -65.7898
   -65.7873 -65.7859 -65.7701 -65.7691 -65.7496 -65.7452 -65.7139 -65.7094
    -5.0501  -5.0081  -4.9456  -4.9081  -4.9025  -4.8708  -4.8282  -4.8228
    -4.7720  -4.7456  -4.6252  -4.6007  -4.5986  -4.5538  -4.5492  -4.5439
    -4.5243  -4.5151  -4.5126  -4.5030  11.9029  12.2610  12.9276  13.4755
    16.1054  16.4673  17.5632  18.0414  21.1042  22.0632  22.7680  23.6034
    24.1220  24.9696  25.0191  26.2860  28.6154  28.6628  28.8160  28.8620
    30.3856  30.6073  32.8793  33.3225

          k =-0.5832-0.3367-0.1768 (  4284 PWs)   bands (ev):

  -111.1463-111.1463-111.1182-111.1182 -65.8096 -65.8096 -65.7906 -65.7906
   -65.7879 -65.7879 -65.7677 -65.7677 -65.7427 -65.7427 -65.7074 -65.7074
    -5.0330  -5.0330  -4.9170  -4.9170  -4.8883  -4.8883  -4.8110  -4.8110
    -4.7952  -4.7952  -4.5774  -4.5774  -4.5753  -4.5753  -4.5477  -4.5477
    -4.5227  -4.5227  -4.5224  -4.5224  12.0594  12.0594  13.1877  13.1877
    16.6373  16.6373  17.3187  17.3187  22.0227  22.0227  23.0929  23.0929
    24.1303  24.1303  25.7467  25.7467  28.6813  28.6813  28.8363  28.8363
    30.9677  30.9677  32.7996  32.7996

          k =-0.5832 0.1122 0.0000 (  4288 PWs)   bands (ev):

  -111.1490-111.1470-111.1245-111.1193 -65.8070 -65.8052 -65.7943 -65.7918
   -65.7870 -65.7780 -65.7725 -65.7693 -65.7498 -65.7445 -65.7130 -65.7115
    -4.9638  -4.9294  -4.8949  -4.8611  -4.8565  -4.8548  -4.8132  -4.8066
    -4.7734  -4.7417  -4.6803  -4.6504  -4.6438  -4.6121  -4.6048  -4.5956
    -4.5512  -4.5489  -4.5092  -4.5064  11.2664  12.4103  12.4821  13.9160
    17.1193  17.5047  18.2824  19.5105  19.8463  21.0133  21.6018  21.9034
    23.4798  24.2790  25.0310  25.0920  28.2808  30.1935  30.5827  30.7338
    30.7640  31.0120  32.5307  32.6216

          k =-0.5832 0.1122 0.0884 (  4286 PWs)   bands (ev):

  -111.1488-111.1454-111.1223-111.1195 -65.8079 -65.8046 -65.7945 -65.7915
   -65.7859 -65.7806 -65.7717 -65.7697 -65.7465 -65.7454 -65.7110 -65.7099
    -4.9602  -4.9368  -4.8838  -4.8704  -4.8596  -4.8399  -4.8191  -4.8059
    -4.7948  -4.7113  -4.7009  -4.6484  -4.6345  -4.6147  -4.6031  -4.5837
    -4.5770  -4.5382  -4.5126  -4.5032  11.3472  11.9604  12.9804  13.8012
    17.0425  17.6066  18.1373  19.2588  20.4199  20.8293  21.6599  22.2068
    23.1695  23.8222  24.8717  25.6133  28.4759  29.6533  30.3443  31.0037
    31.0237  31.1769  32.5218  32.8618

          k =-0.5832 0.1122-0.1768 (  4292 PWs)   bands (ev):

  -111.1491-111.1491-111.1222-111.1222 -65.8071 -65.8071 -65.7942 -65.7942
   -65.7852 -65.7852 -65.7710 -65.7710 -65.7468 -65.7468 -65.7111 -65.7111
    -4.9500  -4.9500  -4.8722  -4.8722  -4.8497  -4.8497  -4.8241  -4.8241
    -4.7584  -4.7584  -4.6565  -4.6565  -4.6245  -4.6245  -4.6043  -4.6043
    -4.5529  -4.5529  -4.5065  -4.5065  11.5837  11.5837  13.4666  13.4666
    17.2132  17.2132  18.6727  18.6727  20.8269  20.8269  22.0941  22.0941
    23.0687  23.0687  25.4148  25.4148  28.9525  28.9525  30.7888  30.7888
    31.0437  31.0437  32.7938  32.7938

     the Fermi energy is    26.3680 ev

!    total energy              =   -1815.74702061 Ry
     Harris-Foulkes estimate   =   -1815.74702065 Ry
     estimated scf accuracy    <       0.00000005 Ry

     The total energy is the sum of the following terms:

     one-electron contribution =    -737.16647872 Ry
     hartree contribution      =     379.34271306 Ry
     xc contribution           =    -135.82891327 Ry
     ewald contribution        =   -1321.95920646 Ry
     smearing contrib. (-TS)   =      -0.13513522 Ry

     convergence has been achieved in   8 iterations

     Forces acting on atoms (Ry/au):

     atom    1 type  1   force =     0.00000000    0.00000000    0.00000000
     atom    2 type  1   force =     0.00000000    0.00000000    0.00000000
     atom    3 type  1   force =     0.00000000    0.00000000    0.00000000
     atom    4 type  1   force =     0.00000000    0.00000000    0.00000000

     Total force =     0.000000     Total SCF correction =     0.000000


     entering subroutine stress ...

          total   stress  (Ry/bohr**3)                   (kbar)     P=  101.81
   0.00014615   0.00000000   0.00000000         21.50      0.00      0.00
   0.00000000   0.00014615   0.00000000          0.00     21.50      0.00
   0.00000000   0.00000000   0.00178392          0.00      0.00    262.42


     number of scf cycles    =   3
     number of bfgs steps    =   2

     enthalpy old            =   -1815.5925134269 Ry
     enthalpy new            =   -1815.7470206060 Ry

     CASE: enthalpy_new < enthalpy_old

     Message from routine bfgs:
     history already reset at previous step: stopping
     small trust_radius: resetting bfgs history

     new trust radius        =       0.2277183383 bohr
     new conv_thr            =       0.0000010000 Ry

     new unit-cell volume =    685.83643 a.u.^3 (   101.63047 Ang^3 )

CELL_PARAMETERS (alat=  7.12651817)
   0.860544859   0.000000000   0.000000000
  -0.430272429   0.745253709   0.000000000
   0.000000000   0.000000000   2.954681670

ATOMIC_POSITIONS (crystal)
La       0.000000000   0.000000000   0.000000000
La       0.000000000   0.000000000   0.500000000
La       0.666667000   0.333333000   0.750000000
La       0.333333000   0.666667000   0.250000000



     Writing output data file Element-La.q.save
     NEW-OLD atomic charge density approx. for the potential
     NEW k-points:
        k(    1) = (   0.0000000   0.0000000   0.0000000), wk =   0.0833333
        k(    2) = (   0.0000000   0.0000000   0.0846115), wk =   0.1666667
        k(    3) = (   0.0000000   0.0000000  -0.1692230), wk =   0.0833333
        k(    4) = (   0.0000000   0.4472750   0.0000000), wk =   0.1666667
        k(    5) = (   0.0000000   0.4472750   0.0846115), wk =   0.3333333
        k(    6) = (   0.0000000   0.4472750  -0.1692230), wk =   0.1666667
        k(    7) = (  -0.5810272  -0.3354562   0.0000000), wk =   0.0833333
        k(    8) = (  -0.5810272  -0.3354562   0.0846115), wk =   0.1666667
        k(    9) = (  -0.5810272  -0.3354562  -0.1692230), wk =   0.0833333
        k(   10) = (  -0.5810272   0.1118187   0.0000000), wk =   0.1666667
        k(   11) = (  -0.5810272   0.1118187   0.0846115), wk =   0.3333333
        k(   12) = (  -0.5810272   0.1118187  -0.1692230), wk =   0.1666667

     total cpu time spent up to now is       43.6 secs

     Self-consistent Calculation

     iteration #  1     ecut=    40.00 Ry     beta=0.70
     CG style diagonalization
     c_bands:  2 eigenvalues not converged
     c_bands:  2 eigenvalues not converged
     c_bands:  4 eigenvalues not converged
     c_bands:  2 eigenvalues not converged
     ethr =  1.00E-06,  avg # of iterations = 10.1

     total cpu time spent up to now is       46.4 secs

     total energy              =   -1815.29523946 Ry
     Harris-Foulkes estimate   =   -1816.49829046 Ry
     estimated scf accuracy    <       1.50977559 Ry

     iteration #  2     ecut=    40.00 Ry     beta=0.70
     CG style diagonalization
     ethr =  1.51E-03,  avg # of iterations =  3.8

     total cpu time spent up to now is       47.5 secs

     total energy              =   -1815.73015930 Ry
     Harris-Foulkes estimate   =   -1815.80990687 Ry
     estimated scf accuracy    <       0.11219327 Ry

     iteration #  3     ecut=    40.00 Ry     beta=0.70
     CG style diagonalization
     c_bands:  1 eigenvalues not converged
     ethr =  1.12E-04,  avg # of iterations =  4.1

     total cpu time spent up to now is       48.6 secs

     total energy              =   -1815.76609644 Ry
     Harris-Foulkes estimate   =   -1815.76634263 Ry
     estimated scf accuracy    <       0.00053833 Ry

     iteration #  4     ecut=    40.00 Ry     beta=0.70
     CG style diagonalization
     ethr =  5.38E-07,  avg # of iterations =  5.8

     total cpu time spent up to now is       50.3 secs

     total energy              =   -1815.76783701 Ry
     Harris-Foulkes estimate   =   -1815.76797778 Ry
     estimated scf accuracy    <       0.00026290 Ry

     iteration #  5     ecut=    40.00 Ry     beta=0.70
     CG style diagonalization
     ethr =  2.63E-07,  avg # of iterations =  3.3

     total cpu time spent up to now is       51.7 secs

     total energy              =   -1815.76785858 Ry
     Harris-Foulkes estimate   =   -1815.76791282 Ry
     estimated scf accuracy    <       0.00009825 Ry

     iteration #  6     ecut=    40.00 Ry     beta=0.70
     CG style diagonalization
     ethr =  9.83E-08,  avg # of iterations =  3.4

     total cpu time spent up to now is       52.7 secs

     total energy              =   -1815.76788448 Ry
     Harris-Foulkes estimate   =   -1815.76789104 Ry
     estimated scf accuracy    <       0.00001245 Ry

     iteration #  7     ecut=    40.00 Ry     beta=0.70
     CG style diagonalization
     ethr =  1.25E-08,  avg # of iterations =  3.7

     total cpu time spent up to now is       53.7 secs

     End of self-consistent calculation

          k = 0.0000 0.0000 0.0000 (  4275 PWs)   bands (ev):

  -112.5808-112.5719-112.5279-112.5149 -67.2512 -67.2512 -67.2424 -67.2424
   -67.2292 -67.2292 -67.2198 -67.2198 -67.2005 -67.1904 -67.1512 -67.1396
    -6.3322  -6.3322  -6.3269  -6.3218  -6.3218  -6.3176  -6.3176  -6.3162
    -6.3036  -6.3036  -6.2887  -6.2817  -6.1552  -6.1552  -6.1068  -6.1068
    -6.0726  -6.0726  -6.0197  -6.0197   6.4110   7.6572   7.6776  10.1053
    14.6940  19.7816  19.7873  25.6671  25.6672  26.2350  26.5479  26.5479
    26.6429  26.6429  27.6708  27.6708  28.0057  28.0059  28.2896  28.3960
    30.8986  30.9611  31.7465  32.4215

          k = 0.0000 0.0000 0.0846 (  4252 PWs)   bands (ev):

  -112.5679-112.5649-112.5175-112.5112 -67.2438 -67.2438 -67.2435 -67.2435
   -67.2206 -67.2206 -67.2196 -67.2196 -67.1900 -67.1896 -67.1430 -67.1399
    -6.3308  -6.3308  -6.3255  -6.3234  -6.3234  -6.3181  -6.3155  -6.3155
    -6.3057  -6.3057  -6.2874  -6.2825  -6.1505  -6.1505  -6.1194  -6.1194
    -6.0591  -6.0591  -6.0249  -6.0249   6.4932   7.1259   8.3394   9.7871
    15.1858  17.9716  21.7288  25.4339  25.7311  25.7311  26.2238  26.2238
    26.9877  26.9877  27.5816  27.5816  27.9811  28.0417  28.2709  28.3750
    30.9646  31.0448  31.9078  32.0092

          k = 0.0000 0.0000-0.1692 (  4282 PWs)   bands (ev):

  -112.5728-112.5728-112.5354-112.5354 -67.2461 -67.2461 -67.2461 -67.2461
   -67.2242 -67.2242 -67.2242 -67.2242 -67.1940 -67.1940 -67.1565 -67.1565
    -6.3273  -6.3273  -6.3273  -6.3273  -6.3221  -6.3221  -6.3106  -6.3106
    -6.3106  -6.3106  -6.2848  -6.2848  -6.1376  -6.1376  -6.1376  -6.1376
    -6.0392  -6.0392  -6.0392  -6.0392   6.7277   6.7277   9.0903   9.0903
    16.3873  16.3873  23.6894  23.6894  25.9210  25.9210  25.9210  25.9210
    27.3329  27.3329  27.3329  27.3329  28.0399  28.0399  28.2557  28.2557
    31.0007  31.0007  32.0023  32.0023

          k = 0.0000 0.4473 0.0000 (  4286 PWs)   bands (ev):

  -112.5852-112.5662-112.5353-112.5333 -67.2644 -67.2574 -67.2535 -67.2496
   -67.2405 -67.2358 -67.2315 -67.2253 -67.1955 -67.1836 -67.1540 -67.1483
    -6.4357  -6.3968  -6.3839  -6.3421  -6.2902  -6.2635  -6.2286  -6.2247
    -6.1562  -6.1376  -6.1361  -6.1317  -6.1163  -6.0945  -6.0726  -6.0696
    -6.0678  -6.0417  -6.0401  -6.0148   8.6724   9.8432   9.8651  11.8513
    16.9415  17.2407  18.0505  18.1666  20.1797  21.4700  21.8969  22.3409
    23.6986  23.7122  24.3122  25.6319  27.5632  27.7334  27.8374  28.3310
    29.0937  29.6821  30.6313  30.8768

          k = 0.0000 0.4473 0.0846 (  4289 PWs)   bands (ev):

  -112.5761-112.5634-112.5442-112.5345 -67.2618 -67.2579 -67.2572 -67.2503
   -67.2388 -67.2374 -67.2356 -67.2285 -67.1886 -67.1817 -67.1561 -67.1487
    -6.4325  -6.4094  -6.3708  -6.3456  -6.2848  -6.2592  -6.2364  -6.2176
    -6.1865  -6.1679  -6.1141  -6.1077  -6.0963  -6.0941  -6.0762  -6.0712
    -6.0572  -6.0525  -6.0432  -6.0212   8.7483   9.3513  10.4554  11.6294
    16.9181  17.5223  17.6978  18.8324  19.6881  20.5332  22.4331  22.9797
    23.1374  24.3401  24.3630  25.4438  27.5787  27.6033  28.0105  28.2194
    28.7275  29.2125  30.9645  31.1645

          k = 0.0000 0.4473-0.1692 (  4276 PWs)   bands (ev):

  -112.5625-112.5625-112.5347-112.5347 -67.2557 -67.2557 -67.2547 -67.2547
   -67.2357 -67.2357 -67.2314 -67.2314 -67.1802 -67.1802 -67.1488 -67.1488
    -6.4234  -6.4234  -6.3556  -6.3556  -6.2702  -6.2702  -6.2216  -6.2216
    -6.1975  -6.1975  -6.0961  -6.0961  -6.0873  -6.0873  -6.0748  -6.0748
    -6.0577  -6.0577  -6.0382  -6.0382   8.9783   8.9783  11.0923  11.0923
    17.1145  17.1145  18.6385  18.6385  19.6525  19.6525  22.7020  22.7020
    24.0025  24.0025  24.9645  24.9645  27.5903  27.5903  28.1782  28.1782
    28.5354  28.5354  31.4553  31.4553

          k =-0.5810-0.3355 0.0000 (  4296 PWs)   bands (ev):

  -112.5686-112.5655-112.5411-112.5393 -67.2696 -67.2663 -67.2553 -67.2545
   -67.2513 -67.2442 -67.2358 -67.2330 -67.1806 -67.1787 -67.1509 -67.1465
    -6.4678  -6.4180  -6.4072  -6.3589  -6.3276  -6.2856  -6.2496  -6.2396
    -6.1950  -6.1415  -6.1210  -6.0751  -6.0729  -6.0213  -6.0129  -6.0125
    -5.9923  -5.9911  -5.9907  -5.9792  10.7384  11.2323  11.5331  12.2482
    14.8418  15.1357  16.4594  16.8805  19.3316  20.4060  21.6253  22.6892
    22.9734  22.9851  23.6736  24.8239  27.2472  27.4625  27.7640  27.9533
    28.2369  28.4090  31.7223  32.8388

          k =-0.5810-0.3355 0.0846 (  4292 PWs)   bands (ev):

  -112.5738-112.5649-112.5460-112.5393 -67.2671 -67.2639 -67.2542 -67.2482
   -67.2478 -67.2458 -67.2313 -67.2298 -67.1860 -67.1817 -67.1562 -67.1512
    -6.4637  -6.4346  -6.3902  -6.3623  -6.3211  -6.2876  -6.2516  -6.2315
    -6.2106  -6.1740  -6.0882  -6.0626  -6.0614  -6.0298  -6.0123  -6.0122
    -5.9957  -5.9923  -5.9916  -5.9861  10.7888  11.1062  11.6727  12.1412
    15.0069  15.3214  16.1769  16.5894  19.7398  20.6300  21.7179  22.4221
    22.4268  23.2655  23.6095  24.6588  27.4312  27.4916  27.7266  27.9137
    28.5704  28.7934  31.3166  31.4198

          k =-0.5810-0.3355-0.1692 (  4284 PWs)   bands (ev):

  -112.5631-112.5631-112.5370-112.5370 -67.2681 -67.2681 -67.2493 -67.2493
   -67.2481 -67.2481 -67.2286 -67.2286 -67.1780 -67.1780 -67.1487 -67.1487
    -6.4520  -6.4520  -6.3728  -6.3728  -6.3038  -6.3038  -6.2375  -6.2375
    -6.2084  -6.2084  -6.0533  -6.0533  -6.0489  -6.0489  -6.0121  -6.0121
    -5.9987  -5.9987  -5.9922  -5.9922  10.9233  10.9233  11.9140  11.9140
    15.3946  15.3946  16.0586  16.0586  20.4902  20.4902  21.9925  21.9925
    22.5251  22.5251  24.2143  24.2143  27.5344  27.5344  27.8063  27.8063
    29.1539  29.1539  30.8947  30.8947

          k =-0.5810 0.1118 0.0000 (  4288 PWs)   bands (ev):

  -112.5681-112.5646-112.5466-112.5408 -67.2658 -67.2638 -67.2531 -67.2507
   -67.2475 -67.2380 -67.2335 -67.2300 -67.1858 -67.1804 -67.1551 -67.1535
    -6.3784  -6.3374  -6.3349  -6.2947  -6.2865  -6.2630  -6.2630  -6.2322
    -6.2107  -6.1740  -6.1286  -6.1192  -6.1054  -6.0778  -6.0747  -6.0529
    -6.0443  -6.0208  -5.9887  -5.9885  10.2165  11.1875  11.2411  12.4649
    16.0229  16.3946  16.9473  18.0897  18.6816  19.8173  20.3755  20.5497
    21.9923  22.6083  23.2322  23.4419  27.0101  28.4314  28.9131  29.4863
    29.5216  29.9339  31.3034  31.3646

          k =-0.5810 0.1118 0.0846 (  4286 PWs)   bands (ev):

  -112.5670-112.5634-112.5436-112.5400 -67.2666 -67.2631 -67.2534 -67.2501
   -67.2461 -67.2406 -67.2326 -67.2305 -67.1824 -67.1814 -67.1529 -67.1516
    -6.3754  -6.3534  -6.3156  -6.2927  -6.2880  -6.2782  -6.2468  -6.2400
    -6.2191  -6.1578  -6.1473  -6.1093  -6.0991  -6.0794  -6.0721  -6.0577
    -6.0465  -6.0200  -5.9910  -5.9862  10.2859  10.8058  11.6620  12.3619
    15.9839  16.4116  16.9352  17.8756  19.1187  19.6917  20.3446  20.8879
    21.5739  22.2600  23.2336  23.8354  27.2177  28.0440  28.8663  29.5039
    29.9099  29.9544  30.9569  31.6258

          k =-0.5810 0.1118-0.1692 (  4292 PWs)   bands (ev):

  -112.5682-112.5682-112.5431-112.5431 -67.2657 -67.2657 -67.2532 -67.2532
   -67.2453 -67.2453 -67.2318 -67.2318 -67.1831 -67.1831 -67.1529 -67.1529
    -6.3668  -6.3668  -6.2965  -6.2965  -6.2866  -6.2866  -6.2501  -6.2501
    -6.1930  -6.1930  -6.1170  -6.1170  -6.0885  -6.0885  -6.0707  -6.0707
    -6.0306  -6.0306  -5.9880  -5.9880  10.4868  10.4868  12.0719  12.0719
    16.1186  16.1186  17.3855  17.3855  19.6025  19.6025  20.6452  20.6452
    21.6088  21.6088  23.7028  23.7028  27.6205  27.6205  29.1126  29.1126
    29.9652  29.9652  31.3690  31.3690

     the Fermi energy is    24.8223 ev

!    total energy              =   -1815.76788750 Ry
     Harris-Foulkes estimate   =   -1815.76788818 Ry
     estimated scf accuracy    <       0.00000082 Ry

     The total energy is the sum of the following terms:

     one-electron contribution =    -772.43349145 Ry
     hartree contribution      =     391.57670144 Ry
     xc contribution           =    -135.53290915 Ry
     ewald contribution        =   -1299.25758836 Ry
     smearing contrib. (-TS)   =      -0.12059999 Ry

     convergence has been achieved in   7 iterations

     Forces acting on atoms (Ry/au):

     atom    1 type  1   force =     0.00000000    0.00000000    0.00000000
     atom    2 type  1   force =     0.00000000    0.00000000    0.00000000
     atom    3 type  1   force =     0.00000000    0.00000000    0.00000000
     atom    4 type  1   force =     0.00000000    0.00000000    0.00000000

     Total force =     0.000000     Total SCF correction =     0.000000


     entering subroutine stress ...

          total   stress  (Ry/bohr**3)                   (kbar)     P=  -59.76
  -0.00048391   0.00000000   0.00000000        -71.19      0.00      0.00
   0.00000000  -0.00048391   0.00000000          0.00    -71.19      0.00
   0.00000000   0.00000000  -0.00025089          0.00      0.00    -36.91


     The maximum number of steps has been reached.

     End of BFGS Geometry Optimization
Begin final coordinates
     new unit-cell volume =    685.83643 a.u.^3 (   101.63047 Ang^3 )

CELL_PARAMETERS (alat=  7.12651817)
   0.860544859   0.000000000   0.000000000
  -0.430272429   0.745253709   0.000000000
   0.000000000   0.000000000   2.954681670

ATOMIC_POSITIONS (crystal)
La       0.000000000   0.000000000   0.000000000
La       0.000000000   0.000000000   0.500000000
La       0.666667000   0.333333000   0.750000000
La       0.333333000   0.666667000   0.250000000
End final coordinates



     A final scf calculation at the relaxed structure.
     The G-vectors are recalculated for the final unit cell
     Results may differ from those at the preceding step.
 
     Parallelization info
     --------------------
     sticks:   dense  smooth     PW     G-vecs:    dense   smooth      PW
     Min          21      21      6                 1177     1177     190
     Max          22      22      7                 1186     1186     205
     Sum         421     421    121                23593    23593    3839
 


     bravais-lattice index     =            0
     lattice parameter (alat)  =       7.1265  a.u.
     unit-cell volume          =     685.8364 (a.u.)^3
     number of atoms/cell      =            4
     number of atomic types    =            1
     number of electrons       =       100.00
     number of Kohn-Sham states=           60
     kinetic-energy cutoff     =      40.0000  Ry
     charge density cutoff     =     160.0000  Ry
     convergence threshold     =      1.0E-06
     mixing beta               =       0.7000
     number of iterations used =            8  plain     mixing
     Exchange-correlation      = SLA-PZ-NOGX-NOGC ( 1 1 0 0 0)
     EXX-fraction              =        0.00

     celldm(1)=   7.126518  celldm(2)=   0.000000  celldm(3)=   0.000000
     celldm(4)=   0.000000  celldm(5)=   0.000000  celldm(6)=   0.000000

     crystal axes: (cart. coord. in units of alat)
               a(1) = (   0.860545   0.000000   0.000000 )  
               a(2) = (  -0.430272   0.745254   0.000000 )  
               a(3) = (   0.000000   0.000000   2.954682 )  

     reciprocal axes: (cart. coord. in units 2 pi/alat)
               b(1) = (  1.162054  0.670912  0.000000 )  
               b(2) = (  0.000000  1.341825  0.000000 )  
               b(3) = (  0.000000  0.000000  0.338446 )  


     PseudoPot. # 1 for Lu read from file:
     /home/cwx6513/pp.La/La.UPF
     MD5 check sum: 4fc038260c66a0bf25fb4835376efb80
     Pseudo is Norm-conserving, Zval = 25.0
     Generated in analytical, separable form
     Using radial grid of 1271 points,  6 beta functions with: 
                l(1) =   0
                l(2) =   0
                l(3) =   1
                l(4) =   1
                l(5) =   2
                l(6) =   3

     atomic species   valence    mass     pseudopotential
        La            25.00   138.90500     Lu( 1.00)

     24 Sym. Ops., with inversion, found (12 have fractional translation)



   Cartesian axes

     site n.     atom                  positions (alat units)
         1           La  tau(   1) = (   0.0000000   0.0000000   0.0000000  )
         2           La  tau(   2) = (   0.0000000   0.0000000   1.4773408  )
         3           La  tau(   3) = (   0.4302729   0.2484177   2.2160113  )
         4           La  tau(   4) = (  -0.0000004   0.4968361   0.7386704  )

     number of k points=    12  gaussian smearing, width (Ry)=  0.1000
                       cart. coord. in units 2pi/alat
        k(    1) = (   0.0000000   0.0000000   0.0000000), wk =   0.0833333
        k(    2) = (   0.0000000   0.0000000   0.0846115), wk =   0.1666667
        k(    3) = (   0.0000000   0.0000000  -0.1692230), wk =   0.0833333
        k(    4) = (   0.0000000   0.4472750   0.0000000), wk =   0.1666667
        k(    5) = (   0.0000000   0.4472750   0.0846115), wk =   0.3333333
        k(    6) = (   0.0000000   0.4472750  -0.1692230), wk =   0.1666667
        k(    7) = (  -0.5810272  -0.3354562   0.0000000), wk =   0.0833333
        k(    8) = (  -0.5810272  -0.3354562   0.0846115), wk =   0.1666667
        k(    9) = (  -0.5810272  -0.3354562  -0.1692230), wk =   0.0833333
        k(   10) = (  -0.5810272   0.1118187   0.0000000), wk =   0.1666667
        k(   11) = (  -0.5810272   0.1118187   0.0846115), wk =   0.3333333
        k(   12) = (  -0.5810272   0.1118187  -0.1692230), wk =   0.1666667

     Dense  grid:    23593 G-vectors     FFT dimensions: (  25,  25,  90)

     Largest allocated arrays     est. size (Mb)     dimensions
        Kohn-Sham Wavefunctions         0.16 Mb     (    174,   60)
        NL pseudopotentials             0.21 Mb     (    174,   80)
        Each V/rho on FFT grid          0.05 Mb     (   3125)
        Each G-vector array             0.01 Mb     (   1179)
        G-vector shells                 0.00 Mb     (    554)
     Largest temporary arrays     est. size (Mb)     dimensions
        Each subspace H/S matrix        0.01 Mb     (  20,  20)
        Each <psi_i|beta_j> matrix      0.07 Mb     (     80,   60)
        Arrays for rho mixing           0.38 Mb     (   3125,   8)

     Initial potential from superposition of free atoms

     Starting from uniform charge
     Starting wfc are    0 randomized atomic wfcs

     Writing output data file Element-La.q.save

     total cpu time spent up to now is       55.0 secs

     Self-consistent Calculation

     iteration #  1     ecut=    40.00 Ry     beta=0.70
     CG style diagonalization
     c_bands:  2 eigenvalues not converged
     c_bands:  2 eigenvalues not converged
     c_bands:  1 eigenvalues not converged
     c_bands:  3 eigenvalues not converged
     c_bands:  5 eigenvalues not converged
     c_bands:  5 eigenvalues not converged
     c_bands:  1 eigenvalues not converged
     c_bands:  3 eigenvalues not converged
     c_bands:  5 eigenvalues not converged
     c_bands:  2 eigenvalues not converged
     c_bands:  3 eigenvalues not converged
     c_bands:  2 eigenvalues not converged
     ethr =  1.00E-06,  avg # of iterations = 56.9

     total cpu time spent up to now is       68.4 secs

     total energy              =   -1601.86690896 Ry
     Harris-Foulkes estimate   =   -2412.84230291 Ry
     estimated scf accuracy    <    1005.24618308 Ry

     iteration #  2     ecut=    40.00 Ry     beta=0.70
     CG style diagonalization
     ethr =  1.00E-02,  avg # of iterations =  7.3

     total cpu time spent up to now is       70.6 secs

     total energy              =   -1804.43402344 Ry
     Harris-Foulkes estimate   =   -1835.20677462 Ry
     estimated scf accuracy    <      43.41589487 Ry

     iteration #  3     ecut=    40.00 Ry     beta=0.70
     CG style diagonalization
     ethr =  1.00E-02,  avg # of iterations =  4.5

     total cpu time spent up to now is       71.7 secs

     total energy              =   -1813.78989470 Ry
     Harris-Foulkes estimate   =   -1815.06390711 Ry
     estimated scf accuracy    <       1.72290005 Ry

     iteration #  4     ecut=    40.00 Ry     beta=0.70
     CG style diagonalization
     ethr =  1.72E-03,  avg # of iterations =  3.8

     total cpu time spent up to now is       73.3 secs

     total energy              =   -1814.16117916 Ry
     Harris-Foulkes estimate   =   -1814.37206489 Ry
     estimated scf accuracy    <       0.39088221 Ry

     iteration #  5     ecut=    40.00 Ry     beta=0.70
     CG style diagonalization
     ethr =  3.91E-04,  avg # of iterations =  3.4

     total cpu time spent up to now is       74.2 secs

     total energy              =   -1814.18755249 Ry
     Harris-Foulkes estimate   =   -1814.22195315 Ry
     estimated scf accuracy    <       0.04996814 Ry

     iteration #  6     ecut=    40.00 Ry     beta=0.70
     CG style diagonalization
     ethr =  5.00E-05,  avg # of iterations =  4.1

     total cpu time spent up to now is       75.2 secs

     total energy              =   -1814.20690145 Ry
     Harris-Foulkes estimate   =   -1814.20855440 Ry
     estimated scf accuracy    <       0.00429557 Ry

     iteration #  7     ecut=    40.00 Ry     beta=0.70
     CG style diagonalization
     c_bands:  1 eigenvalues not converged
     ethr =  4.30E-06,  avg # of iterations =  3.6

     total cpu time spent up to now is       76.3 secs

     total energy              =   -1814.20655453 Ry
     Harris-Foulkes estimate   =   -1814.20731655 Ry
     estimated scf accuracy    <       0.00134615 Ry

     iteration #  8     ecut=    40.00 Ry     beta=0.70
     CG style diagonalization
     c_bands:  1 eigenvalues not converged
     ethr =  1.35E-06,  avg # of iterations =  3.6

     total cpu time spent up to now is       77.2 secs

     total energy              =   -1814.20679182 Ry
     Harris-Foulkes estimate   =   -1814.20681371 Ry
     estimated scf accuracy    <       0.00003883 Ry

     iteration #  9     ecut=    40.00 Ry     beta=0.70
     CG style diagonalization
     ethr =  3.88E-08,  avg # of iterations =  3.9

     total cpu time spent up to now is       78.2 secs

     total energy              =   -1814.20681119 Ry
     Harris-Foulkes estimate   =   -1814.20681192 Ry
     estimated scf accuracy    <       0.00000260 Ry

     iteration # 10     ecut=    40.00 Ry     beta=0.70
     CG style diagonalization
     ethr =  2.60E-09,  avg # of iterations =  3.6

     total cpu time spent up to now is       80.0 secs

     total energy              =   -1814.20681029 Ry
     Harris-Foulkes estimate   =   -1814.20681185 Ry
     estimated scf accuracy    <       0.00000230 Ry

     iteration # 11     ecut=    40.00 Ry     beta=0.70
     CG style diagonalization
     ethr =  2.30E-09,  avg # of iterations =  3.8

     total cpu time spent up to now is       80.9 secs

     End of self-consistent calculation

          k = 0.0000 0.0000 0.0000 (  2947 PWs)   bands (ev):

  -111.8225-111.6474-111.6345-111.6162 -67.1821 -67.1821 -67.1575 -67.1575
   -67.1506 -67.1506 -67.1494 -67.1494 -67.1255 -67.0946 -67.0631 -67.0578
    -6.5053  -6.5053  -6.4917  -6.4917  -6.4912  -6.4912  -6.4801  -6.4801
    -6.4631  -6.4467  -6.4210  -6.4108  -6.3040  -6.3040  -6.2484  -6.2484
    -6.2182  -6.2182  -6.1647  -6.1647   6.5380   7.8181   7.8305  10.3134
    14.7192  19.8343  19.8401  25.7696  25.7696  26.2943  26.6437  26.6437
    26.7108  26.7108  27.7412  27.7413  28.7096  28.7483  29.0918  29.1406
    31.5307  31.6286  32.7501  32.7501

          k = 0.0000 0.0000 0.0846 (  2940 PWs)   bands (ev):

  -111.7109-111.6882-111.6726-111.6020 -67.1678 -67.1678 -67.1667 -67.1667
   -67.1518 -67.1518 -67.1468 -67.1468 -67.1017 -67.0948 -67.0693 -67.0616
    -6.5019  -6.5019  -6.4949  -6.4949  -6.4896  -6.4896  -6.4809  -6.4809
    -6.4578  -6.4491  -6.4213  -6.4114  -6.2949  -6.2949  -6.2621  -6.2621
    -6.2074  -6.2074  -6.1693  -6.1693   6.6336   7.2733   8.4982   9.9859
    15.2184  18.0240  21.7748  25.4837  25.8360  25.8360  26.3165  26.3166
    27.0616  27.0616  27.6533  27.6533  28.7502  28.7846  29.0419  29.0907
    31.5724  31.6489  32.6825  33.0580

          k = 0.0000 0.0000-0.1692 (  2946 PWs)   bands (ev):

  -111.6882-111.6882-111.6681-111.6681 -67.1673 -67.1673 -67.1673 -67.1673
   -67.1518 -67.1518 -67.1518 -67.1518 -67.1017 -67.1017 -67.0684 -67.0684
    -6.4988  -6.4988  -6.4988  -6.4988  -6.4856  -6.4856  -6.4856  -6.4856
    -6.4529  -6.4529  -6.4184  -6.4184  -6.2801  -6.2801  -6.2801  -6.2801
    -6.1868  -6.1868  -6.1868  -6.1868   6.8778   6.8778   9.2604   9.2604
    16.4337  16.4337  23.7416  23.7416  26.0235  26.0235  26.0235  26.0235
    27.4082  27.4082  27.4082  27.4082  28.8074  28.8074  29.0018  29.0018
    31.6528  31.6528  32.8142  32.8297

          k = 0.0000 0.4473 0.0000 (  2933 PWs)   bands (ev):

  -111.7366-111.6720-111.6437-111.6235 -67.1831 -67.1730 -67.1619 -67.1580
   -67.1574 -67.1564 -67.1439 -67.1406 -67.1079 -67.0952 -67.0695 -67.0646
    -6.5950  -6.5592  -6.5454  -6.5128  -6.4346  -6.4056  -6.3709  -6.3697
    -6.3007  -6.2935  -6.2833  -6.2774  -6.2712  -6.2569  -6.2516  -6.2424
    -6.2295  -6.1849  -6.1849  -6.1610   8.8220  10.0158  10.0358  12.0882
    16.9708  17.2869  18.1046  18.2310  20.2647  21.5041  21.9294  22.4224
    23.7705  23.7832  24.3516  25.7251  27.6900  27.9523  28.0610  28.7163
    29.5117  30.0269  31.0283  31.4197

          k = 0.0000 0.4473 0.0846 (  2925 PWs)   bands (ev):

  -111.6971-111.6780-111.6289-111.6176 -67.1809 -67.1713 -67.1598 -67.1555
   -67.1544 -67.1530 -67.1414 -67.1407 -67.0968 -67.0936 -67.0735 -67.0608
    -6.5923  -6.5695  -6.5357  -6.5143  -6.4292  -6.4013  -6.3767  -6.3616
    -6.3285  -6.3145  -6.2734  -6.2691  -6.2571  -6.2528  -6.2474  -6.2377
    -6.2119  -6.1963  -6.1851  -6.1681   8.9049   9.5159  10.6426  11.8532
    16.9657  17.5831  17.7368  18.8877  19.7605  20.5689  22.5141  23.0232
    23.2159  24.4073  24.4146  25.5355  27.7201  27.7789  28.3049  28.5247
    29.1313  29.4856  31.5196  31.7693

          k = 0.0000 0.4473-0.1692 (  2922 PWs)   bands (ev):

  -111.6896-111.6896-111.6117-111.6117 -67.1699 -67.1699 -67.1586 -67.1586
   -67.1518 -67.1518 -67.1377 -67.1377 -67.1007 -67.1007 -67.0667 -67.0667
    -6.5826  -6.5826  -6.5221  -6.5221  -6.4138  -6.4138  -6.3623  -6.3623
    -6.3440  -6.3440  -6.2690  -6.2690  -6.2506  -6.2506  -6.2297  -6.2297
    -6.2003  -6.2003  -6.1855  -6.1855   9.1367   9.1367  11.2974  11.2974
    17.1715  17.1715  18.6860  18.6860  19.6992  19.6992  22.7845  22.7845
    24.0486  24.0486  25.0450  25.0450  27.7516  27.7516  28.5072  28.5072
    28.8017  28.8017  32.1720  32.1721

          k =-0.5810-0.3355 0.0000 (  2952 PWs)   bands (ev):

  -111.7417-111.7362-111.6956-111.6491 -67.1910 -67.1791 -67.1733 -67.1722
   -67.1695 -67.1653 -67.1492 -67.1402 -67.1040 -67.1006 -67.0763 -67.0755
    -6.6261  -6.5810  -6.5691  -6.5281  -6.4723  -6.4315  -6.3932  -6.3846
    -6.3410  -6.2845  -6.2684  -6.2178  -6.2152  -6.1941  -6.1932  -6.1827
    -6.1718  -6.1590  -6.1351  -6.1271  10.9251  11.4236  11.7409  12.4732
    14.8691  15.1598  16.5122  16.9222  19.3567  20.4361  21.7131  22.7428
    23.0648  23.0772  23.7267  24.9477  27.3454  27.4966  27.9598  28.3859
    28.4965  28.5136  31.8153  32.5225

          k =-0.5810-0.3355 0.0846 (  2930 PWs)   bands (ev):

  -111.7181-111.6847-111.6392-111.6298 -67.1831 -67.1749 -67.1723 -67.1657
   -67.1628 -67.1615 -67.1442 -67.1386 -67.0941 -67.0886 -67.0698 -67.0595
    -6.6218  -6.5954  -6.5534  -6.5313  -6.4645  -6.4321  -6.3912  -6.3758
    -6.3535  -6.3165  -6.2327  -6.2046  -6.2032  -6.1944  -6.1915  -6.1827
    -6.1714  -6.1638  -6.1382  -6.1324  10.9776  11.3097  11.8864  12.3696
    15.0393  15.3541  16.2228  16.6309  19.7728  20.6674  21.8060  22.4751
    22.5112  23.3119  23.7005  24.7706  27.5341  27.5655  27.8834  28.3422
    28.7739  28.9892  31.7787  31.9737

          k =-0.5810-0.3355-0.1692 (  2948 PWs)   bands (ev):

  -111.7252-111.7252-111.6722-111.6722 -67.1847 -67.1847 -67.1760 -67.1760
   -67.1665 -67.1665 -67.1522 -67.1522 -67.0966 -67.0966 -67.0652 -67.0652
    -6.6121  -6.6121  -6.5412  -6.5412  -6.4460  -6.4460  -6.3786  -6.3786
    -6.3541  -6.3541  -6.2032  -6.2032  -6.1920  -6.1920  -6.1887  -6.1887
    -6.1734  -6.1734  -6.1458  -6.1458  11.1116  11.1116  12.1252  12.1252
    15.4392  15.4392  16.0917  16.0917  20.5308  20.5308  22.0768  22.0768
    22.5614  22.5614  24.3062  24.3062  27.6083  27.6083  28.0864  28.0864
    29.4125  29.4125  31.2184  31.2184

          k =-0.5810 0.1118 0.0000 (  2931 PWs)   bands (ev):

  -111.7226-111.6700-111.6520-111.6494 -67.1806 -67.1713 -67.1649 -67.1645
   -67.1608 -67.1561 -67.1514 -67.1400 -67.1006 -67.0925 -67.0707 -67.0679
    -6.5393  -6.4988  -6.4915  -6.4594  -6.4477  -6.4094  -6.4069  -6.3739
    -6.3545  -6.3223  -6.2854  -6.2675  -6.2643  -6.2477  -6.2463  -6.2107
    -6.1891  -6.1755  -6.1436  -6.1385  10.3928  11.3833  11.4406  12.7032
    16.0648  16.4426  16.9739  18.1640  18.7090  19.8515  20.4086  20.5794
    22.0266  22.6593  23.2757  23.4834  27.2197  28.6005  29.0948  29.9962
    30.0076  30.2953  31.8240  32.0144

          k =-0.5810 0.1118 0.0846 (  2936 PWs)   bands (ev):

  -111.7123-111.6911-111.6666-111.6582 -67.1813 -67.1775 -67.1676 -67.1655
   -67.1628 -67.1623 -67.1497 -67.1451 -67.0989 -67.0924 -67.0691 -67.0677
    -6.5360  -6.5133  -6.4784  -6.4602  -6.4439  -6.4235  -6.3926  -6.3814
    -6.3633  -6.3031  -6.2993  -6.2673  -6.2594  -6.2501  -6.2458  -6.2065
    -6.1989  -6.1707  -6.1451  -6.1387  10.4584  10.9908  11.8742  12.5985
    16.0187  16.4483  16.9807  17.9436  19.1472  19.7220  20.3732  20.9249
    21.6086  22.3061  23.2714  23.8805  27.4518  28.1922  29.2011  29.9002
    30.3245  30.3653  31.3490  32.2832

          k =-0.5810 0.1118-0.1692 (  2932 PWs)   bands (ev):

  -111.6845-111.6845-111.6639-111.6639 -67.1767 -67.1767 -67.1656 -67.1656
   -67.1608 -67.1608 -67.1500 -67.1500 -67.0930 -67.0930 -67.0660 -67.0660
    -6.5272  -6.5272  -6.4658  -6.4658  -6.4326  -6.4326  -6.3927  -6.3927
    -6.3363  -6.3363  -6.2755  -6.2755  -6.2494  -6.2494  -6.2351  -6.2351
    -6.1790  -6.1790  -6.1422  -6.1422  10.6678  10.6678  12.2988  12.2988
    16.1481  16.1481  17.4482  17.4482  19.6327  19.6327  20.6760  20.6760
    21.6507  21.6507  23.7463  23.7463  27.8532  27.8532  29.4339  29.4339
    30.3834  30.3834  31.9301  31.9301

     the Fermi energy is    24.8968 ev

!    total energy              =   -1814.20681083 Ry
     Harris-Foulkes estimate   =   -1814.20681084 Ry
     estimated scf accuracy    <          7.6E-09 Ry

     The total energy is the sum of the following terms:

     one-electron contribution =    -769.86146750 Ry
     hartree contribution      =     390.32511272 Ry
     xc contribution           =    -135.29476187 Ry
     ewald contribution        =   -1299.25758837 Ry
     smearing contrib. (-TS)   =      -0.11810582 Ry

     convergence has been achieved in  11 iterations

     Forces acting on atoms (Ry/au):

     atom    1 type  1   force =     0.00000000    0.00000000    0.00000000
     atom    2 type  1   force =     0.00000000    0.00000000    0.00000000
     atom    3 type  1   force =     0.00000000    0.00000000    0.00000000
     atom    4 type  1   force =     0.00000000    0.00000000    0.00000000

     Total force =     0.000000     Total SCF correction =     0.000000


     entering subroutine stress ...

          total   stress  (Ry/bohr**3)                   (kbar)     P= -721.95
  -0.00527135   0.00000000   0.00000000       -775.44      0.00      0.00
   0.00000000  -0.00527135   0.00000000          0.00   -775.44      0.00
   0.00000000   0.00000000  -0.00418051          0.00      0.00   -614.97


     Writing output data file Element-La.q.save
 
     init_run     :      1.50s CPU      1.99s WALL (       2 calls)
     electrons    :     71.38s CPU     76.52s WALL (       5 calls)
     update_pot   :      0.37s CPU      0.51s WALL (       3 calls)
     forces       :      0.26s CPU      0.31s WALL (       5 calls)
     stress       :      0.58s CPU      0.63s WALL (       5 calls)

     Called by init_run:
     wfcinit      :      1.16s CPU      1.48s WALL (       2 calls)
     potinit      :      0.09s CPU      0.11s WALL (       2 calls)

     Called by electrons:
     c_bands      :     68.69s CPU     72.89s WALL (      42 calls)
     sum_band     :      2.38s CPU      2.53s WALL (      42 calls)
     v_of_rho     :      0.02s CPU      0.03s WALL (      47 calls)
     mix_rho      :      0.02s CPU      0.05s WALL (      42 calls)

     Called by c_bands:
     init_us_2    :      0.11s CPU      0.12s WALL (    1152 calls)
     ccgdiagg     :     56.73s CPU     58.49s WALL (     578 calls)
     wfcrot       :     12.94s CPU     15.56s WALL (     590 calls)

     Called by *cgdiagg:
     h_psi        :     40.88s CPU     43.74s WALL (  161007 calls)
     cdiaghg      :      2.62s CPU      4.43s WALL (     590 calls)

     Called by h_psi:
     add_vuspsi   :      1.84s CPU      2.63s WALL (  161007 calls)

     General routines
     calbec       :     10.95s CPU     12.36s WALL (  321544 calls)
     fft          :      0.07s CPU      0.16s WALL (     211 calls)
     fftw         :     32.42s CPU     33.46s WALL (  421874 calls)
     davcio       :      0.19s CPU      0.30s WALL (    1656 calls)
 
     Parallel routines
     fft_scatter  :     21.12s CPU     20.82s WALL (  422085 calls)
 
     PWSCF        :  1m14.57s CPU     1m23.71s WALL

 
   This run was terminated on:  23: 0:32  21Mar2018            

=------------------------------------------------------------------------------=
   JOB DONE.
=------------------------------------------------------------------------------=
