
     Program PWSCF v.5.0.2 starts on 22Mar2018 at  0:39:33 

     This program is part of the open-source Quantum ESPRESSO suite
     for quantum simulation of materials; please cite
         "P. Giannozzi et al., J. Phys.:Condens. Matter 21 395502 (2009);
          URL http://www.quantum-espresso.org", 
     in publications or presentations arising from this work. More details at
     http://www.quantum-espresso.org/quote.php

     Parallel version (MPI), running on     4 processors
     R & G space division:  proc/nbgrp/npool/nimage =       4

     Current dimensions of program PWSCF are:
     Max number of different atomic species (ntypx) = 10
     Max number of k-points (npk) =  40000
     Max angular momentum in pseudopotentials (lmaxx) =  3
     Waiting for input...
     Reading input from standard input

     Subspace diagonalization in iterative solution of the eigenvalue problem:
     a serial algorithm will be used

 
     Parallelization info
     --------------------
     sticks:   dense  smooth     PW     G-vecs:    dense   smooth      PW
     Min         207     207     61                 7381     7381    1191
     Max         208     208     62                 7386     7386    1192
     Sum         829     829    247                29529    29529    4767
 


     bravais-lattice index     =            0
     lattice parameter (alat)  =       7.0151  a.u.
     unit-cell volume          =     862.2778 (a.u.)^3
     number of atoms/cell      =           12
     number of atomic types    =            2
     number of electrons       =       172.00
     number of Kohn-Sham states=          103
     kinetic-energy cutoff     =      40.0000  Ry
     charge density cutoff     =     160.0000  Ry
     convergence threshold     =      1.0E-04
     mixing beta               =       0.7000
     number of iterations used =            8  plain     mixing
     Exchange-correlation      = SLA-PZ-NOGX-NOGC ( 1 1 0 0 0)
     EXX-fraction              =        0.00
     nstep                     =           50


     celldm(1)=   7.015105  celldm(2)=   0.000000  celldm(3)=   0.000000
     celldm(4)=   0.000000  celldm(5)=   0.000000  celldm(6)=   0.000000

     crystal axes: (cart. coord. in units of alat)
               a(1) = (   1.000000   0.000000   0.000000 )  
               a(2) = (   0.000000   1.315963   0.000000 )  
               a(3) = (   0.000000   0.000000   1.898020 )  

     reciprocal axes: (cart. coord. in units 2 pi/alat)
               b(1) = (  1.000000  0.000000  0.000000 )  
               b(2) = (  0.000000  0.759900  0.000000 )  
               b(3) = (  0.000000  0.000000  0.526865 )  


     PseudoPot. # 1 for Ce read from file:
     /home/jld5415/pp.La/Ce.UPF
     MD5 check sum: 44451aa79a44a00cf2bc029dc19922f6
     Pseudo is Norm-conserving, Zval = 12.0
     Generated in analytical, separable form
     Using radial grid of 1255 points,  6 beta functions with: 
                l(1) =   0
                l(2) =   0
                l(3) =   1
                l(4) =   1
                l(5) =   2
                l(6) =   3

     PseudoPot. # 2 for Tb read from file:
     /home/jld5415/pp.La/Tb.UPF
     MD5 check sum: 3d6088a3f0cf7fd2e110c43f7f8e95c2
     Pseudo is Norm-conserving, Zval = 19.0
     Generated in analytical, separable form
     Using radial grid of 1263 points,  6 beta functions with: 
                l(1) =   0
                l(2) =   0
                l(3) =   1
                l(4) =   1
                l(5) =   2
                l(6) =   3

     atomic species   valence    mass     pseudopotential
        Co            12.00    58.93320     Ce( 1.00)
        Si            19.00    28.08550     Tb( 1.00)

      8 Sym. Ops., with inversion, found ( 6 have fractional translation)



   Cartesian axes

     site n.     atom                  positions (alat units)
         1           Co  tau(   1) = (   0.7500000   1.0875135   0.8270358  )
         2           Co  tau(   2) = (   0.2500000   0.2284499   1.0709846  )
         3           Co  tau(   3) = (   0.7500000   0.4295318   0.1219744  )
         4           Co  tau(   4) = (   0.2500000   0.8864316   1.7760460  )
         5           Co  tau(   5) = (   0.2500000   0.7067855   0.5358966  )
         6           Co  tau(   6) = (   0.7500000   0.6091779   1.3621238  )
         7           Co  tau(   7) = (   0.2500000   0.0488038   0.4131136  )
         8           Co  tau(   8) = (   0.7500000   1.2671596   1.4849068  )
         9           Si  tau(   9) = (   0.2500000   0.2669484   1.6960710  )
        10           Si  tau(  10) = (   0.7500000   1.0490149   0.2019494  )
        11           Si  tau(  11) = (   0.2500000   0.9249301   1.1509596  )
        12           Si  tau(  12) = (   0.7500000   0.3910333   0.7470608  )

     number of k points=    12  gaussian smearing, width (Ry)=  0.1000
                       cart. coord. in units 2pi/alat
        k(    1) = (   0.0000000   0.0000000   0.0000000), wk =   0.0833333
        k(    2) = (   0.0000000   0.0000000   0.1317162), wk =   0.1666667
        k(    3) = (   0.0000000   0.0000000  -0.2634324), wk =   0.0833333
        k(    4) = (   0.0000000   0.2532999   0.0000000), wk =   0.1666667
        k(    5) = (   0.0000000   0.2532999   0.1317162), wk =   0.3333333
        k(    6) = (   0.0000000   0.2532999  -0.2634324), wk =   0.1666667
        k(    7) = (  -0.5000000   0.0000000   0.0000000), wk =   0.0833333
        k(    8) = (  -0.5000000   0.0000000   0.1317162), wk =   0.1666667
        k(    9) = (  -0.5000000   0.0000000  -0.2634324), wk =   0.0833333
        k(   10) = (  -0.5000000   0.2532999   0.0000000), wk =   0.1666667
        k(   11) = (  -0.5000000   0.2532999   0.1317162), wk =   0.3333333
        k(   12) = (  -0.5000000   0.2532999  -0.2634324), wk =   0.1666667

     Dense  grid:    29529 G-vectors     FFT dimensions: (  30,  40,  54)

     Largest allocated arrays     est. size (Mb)     dimensions
        Kohn-Sham Wavefunctions         1.45 Mb     (    922,  103)
        NL pseudopotentials             3.38 Mb     (    922,  240)
        Each V/rho on FFT grid          0.26 Mb     (  16800)
        Each G-vector array             0.06 Mb     (   7386)
        G-vector shells                 0.06 Mb     (   7386)
     Largest temporary arrays     est. size (Mb)     dimensions
        Each subspace H/S matrix        0.16 Mb     ( 103, 103)
        Each <psi_i|beta_j> matrix      0.38 Mb     (    240,  103)
        Arrays for rho mixing           2.05 Mb     (  16800,   8)

     Initial potential from superposition of free atoms

     Starting from uniform charge
     Starting wfc are    0 randomized atomic wfcs

     total cpu time spent up to now is        2.5 secs

     Self-consistent Calculation

     iteration #  1     ecut=    40.00 Ry     beta=0.70
     CG style diagonalization
     ethr =  1.00E-02,  avg # of iterations = 16.8

     total cpu time spent up to now is       41.9 secs

     total energy              =    -846.18445272 Ry
     Harris-Foulkes estimate   =   -1794.17206395 Ry
     estimated scf accuracy    <    1146.78315385 Ry

     iteration #  2     ecut=    40.00 Ry     beta=0.70
     CG style diagonalization
     c_bands:  4 eigenvalues not converged
     c_bands:  3 eigenvalues not converged
     c_bands:  3 eigenvalues not converged
     c_bands:  3 eigenvalues not converged
     c_bands:  3 eigenvalues not converged
     c_bands:  2 eigenvalues not converged
     ethr =  1.00E-02,  avg # of iterations = 15.7

     total cpu time spent up to now is       78.8 secs

     total energy              =   -1339.04285496 Ry
     Harris-Foulkes estimate   =   -2042.36406138 Ry
     estimated scf accuracy    <    1342.30070838 Ry

     iteration #  3     ecut=    40.00 Ry     beta=0.70
     CG style diagonalization
     ethr =  1.00E-02,  avg # of iterations = 12.7

     total cpu time spent up to now is      107.3 secs

     total energy              =   -1515.05883224 Ry
     Harris-Foulkes estimate   =   -1547.98046835 Ry
     estimated scf accuracy    <      74.05651119 Ry

     iteration #  4     ecut=    40.00 Ry     beta=0.70
     CG style diagonalization
     ethr =  1.00E-02,  avg # of iterations =  4.4

     total cpu time spent up to now is      117.0 secs

     total energy              =   -1520.14364109 Ry
     Harris-Foulkes estimate   =   -1526.05562475 Ry
     estimated scf accuracy    <      15.05930694 Ry

     iteration #  5     ecut=    40.00 Ry     beta=0.70
     CG style diagonalization
     ethr =  8.76E-03,  avg # of iterations =  3.3

     total cpu time spent up to now is      124.2 secs

     total energy              =   -1520.94258821 Ry
     Harris-Foulkes estimate   =   -1522.22356423 Ry
     estimated scf accuracy    <       2.85413499 Ry

     iteration #  6     ecut=    40.00 Ry     beta=0.70
     CG style diagonalization
     ethr =  1.66E-03,  avg # of iterations =  4.0

     total cpu time spent up to now is      133.3 secs

     total energy              =   -1521.47977397 Ry
     Harris-Foulkes estimate   =   -1521.65450636 Ry
     estimated scf accuracy    <       0.28613672 Ry

     iteration #  7     ecut=    40.00 Ry     beta=0.70
     CG style diagonalization
     c_bands:  1 eigenvalues not converged
     c_bands:  1 eigenvalues not converged
     c_bands:  1 eigenvalues not converged
     ethr =  1.66E-04,  avg # of iterations =  5.2

     total cpu time spent up to now is      145.4 secs

     total energy              =   -1521.63772908 Ry
     Harris-Foulkes estimate   =   -1521.68494761 Ry
     estimated scf accuracy    <       0.11707335 Ry

     iteration #  8     ecut=    40.00 Ry     beta=0.70
     CG style diagonalization
     c_bands:  1 eigenvalues not converged
     ethr =  6.81E-05,  avg # of iterations =  3.5

     total cpu time spent up to now is      153.4 secs

     total energy              =   -1521.64172394 Ry
     Harris-Foulkes estimate   =   -1521.65569953 Ry
     estimated scf accuracy    <       0.02579103 Ry

     iteration #  9     ecut=    40.00 Ry     beta=0.70
     CG style diagonalization
     c_bands:  1 eigenvalues not converged
     c_bands:  1 eigenvalues not converged
     c_bands:  1 eigenvalues not converged
     ethr =  1.50E-05,  avg # of iterations =  4.1

     total cpu time spent up to now is      162.5 secs

     total energy              =   -1521.64820423 Ry
     Harris-Foulkes estimate   =   -1521.64844054 Ry
     estimated scf accuracy    <       0.00045184 Ry

     iteration # 10     ecut=    40.00 Ry     beta=0.70
     CG style diagonalization
     c_bands:  1 eigenvalues not converged
     ethr =  2.63E-07,  avg # of iterations =  5.7

     total cpu time spent up to now is      176.2 secs

     total energy              =   -1521.64870876 Ry
     Harris-Foulkes estimate   =   -1521.64912256 Ry
     estimated scf accuracy    <       0.00070535 Ry

     iteration # 11     ecut=    40.00 Ry     beta=0.70
     CG style diagonalization
     ethr =  2.63E-07,  avg # of iterations =  3.7

     total cpu time spent up to now is      184.2 secs

     End of self-consistent calculation

          k = 0.0000 0.0000 0.0000 (  3675 PWs)   bands (ev):

   -33.6590 -33.6281 -33.6224 -33.6092  -3.2744  -3.2734  -3.0570  -2.9927
    -2.9559  -2.9546  -2.8669  -2.8249  -2.7945  -2.6324  -2.3865  -2.3119
     3.3885   5.5300   6.0689   6.3817   7.0826   7.7952   7.8746   8.0957
    18.0572  18.7692  19.8888  19.9169  20.3948  20.5769  20.8654  21.8535
    21.9949  22.4863  22.8400  22.8474  23.1150  23.8705  23.9537  24.7262
    24.9996  25.0919  25.8073  26.4808  27.5129  27.9690  28.3537  29.1644
    30.7609  31.7477  32.4225  32.4739  32.4919  32.6781  33.1106  33.3462
    33.5921  34.3886  34.8257  35.0601  35.4788  36.8052  36.8698  37.0701
    37.6217  37.7306  37.7917  38.0957  38.2850  40.6978  40.9450  42.2275
    42.4958  42.7889  42.9985  43.1932  43.3877  43.4891  43.6155  44.4288
    44.5308  45.1441  45.9452  46.0238  46.1509  46.3127  46.4832  47.5845
    47.6118  47.7271  48.5812  49.1495  49.6063  49.8303  49.9446  50.3554
    50.7312  51.3626  51.9501  52.1444  52.2680  52.9217  52.9445

          k = 0.0000 0.0000 0.1317 (  3675 PWs)   bands (ev):

   -33.6565 -33.6360 -33.6152 -33.6115  -3.2491  -3.2145  -3.0486  -3.0308
    -3.0047  -2.9710  -2.8489  -2.8125  -2.7867  -2.6494  -2.3898  -2.3385
     3.6204   4.9801   6.4825   6.5318   7.0264   7.7596   7.8577   7.8952
    18.1684  19.0092  19.6181  19.9671  20.4293  20.7597  21.1389  21.4218
    22.5150  22.5645  22.8266  22.8464  23.0753  23.3903  23.9195  24.6658
    24.9284  25.6833  25.8764  26.0606  27.2713  27.3197  28.4010  29.0203
    30.7464  31.7040  32.1290  32.1480  32.6943  32.9572  33.3009  33.3651
    34.4003  34.4097  34.5799  35.0822  35.9854  36.4681  36.6150  36.8626
    37.3005  38.1210  38.1686  38.1743  38.5150  40.6232  41.5570  42.5887
    42.6845  42.9925  42.9938  43.1212  43.5698  43.9718  43.9857  44.4730
    44.4919  44.9980  45.0515  45.3521  45.7186  45.8977  47.0199  47.0379
    47.7464  48.2364  48.8407  49.0300  49.2704  49.3417  49.5575  50.2004
    50.6703  50.6923  51.2501  51.5398  52.3822  52.6900  52.8756

          k = 0.0000 0.0000-0.2634 (  3690 PWs)   bands (ev):

   -33.6482 -33.6482 -33.6151 -33.6151  -3.1740  -3.1740  -3.1103  -3.1103
    -3.0012  -3.0012  -2.8244  -2.8244  -2.7167  -2.7167  -2.3796  -2.3796
     4.2220   4.2220   6.6952   6.6952   7.3016   7.3016   7.8240   7.8240
    18.5518  18.5518  20.1538  20.1538  20.4795  20.4795  21.7039  21.7039
    21.8554  21.8554  22.8172  22.8172  23.3479  23.3479  24.6832  24.6832
    25.0005  25.0005  26.2101  26.2101  26.7070  26.7070  28.6061  28.6061
    31.1398  31.1398  31.7847  31.7847  33.0653  33.0653  33.6984  33.6984
    34.5361  34.5361  35.3548  35.3548  36.0434  36.0434  36.2711  36.2711
    37.4744  37.4744  38.3073  38.3073  39.9358  39.9358  42.7946  42.7946
    42.9552  42.9552  43.3054  43.3054  43.8984  43.8984  44.2148  44.2148
    44.2886  44.2886  45.0846  45.0846  46.3246  46.3246  47.0681  47.0681
    47.3637  47.3637  47.4622  47.4622  48.9781  48.9781  49.9119  49.9120
    50.8624  50.8627  51.5043  51.5045  53.0220  53.0267  53.0550

          k = 0.0000 0.2533 0.0000 (  3664 PWs)   bands (ev):

   -33.6514 -33.6328 -33.6177 -33.6092  -3.4167  -3.4080  -3.0070  -2.9552
    -2.9443  -2.9048  -2.8719  -2.8330  -2.7423  -2.6026  -2.4184  -2.3494
     4.1264   5.5720   5.9648   6.4935   6.9954   7.0731   8.0772   8.2048
    18.7362  19.6515  19.9969  20.0150  20.0781  20.2135  20.5128  21.1085
    21.6391  21.9952  22.0068  23.4389  23.4886  24.1842  24.4575  24.6949
    25.1387  25.3638  25.7260  26.0958  26.5019  26.6009  27.3802  27.4455
    31.4604  32.1261  32.1838  33.0673  33.7843  33.8614  33.9365  34.1228
    34.1505  34.2689  35.1357  35.9876  36.0422  36.1034  36.9053  37.6847
    37.7187  37.9166  38.1242  38.1373  38.6373  40.6383  40.9088  41.1193
    41.7610  41.9282  42.9277  43.2521  43.6832  43.7199  44.0559  44.3277
    44.8781  44.9326  45.8904  46.3159  46.6224  46.7343  46.9969  47.1933
    47.3548  47.8451  48.2799  49.0425  49.1857  49.2050  49.7800  49.8642
    50.2218  50.8604  51.3797  51.4253  51.6032  52.4145  53.5741

          k = 0.0000 0.2533 0.1317 (  3669 PWs)   bands (ev):

   -33.6491 -33.6355 -33.6177 -33.6131  -3.3958  -3.3834  -3.0117  -2.9885
    -2.9561  -2.9475  -2.8653  -2.8382  -2.7226  -2.6223  -2.3984  -2.3561
     4.3223   5.4560   5.7837   6.6064   6.8842   7.3500   7.9734   8.0515
    18.9893  19.6500  19.7059  19.9641  20.2436  20.6423  20.6967  21.1967
    21.7384  21.8639  22.2484  22.9295  23.5670  24.0789  24.3941  24.5585
    24.9773  25.4400  25.4915  26.1157  26.3481  26.5230  26.9393  27.5044
    31.6422  32.1664  32.5741  32.9699  33.5408  33.6310  34.0208  34.1832
    34.5273  34.5711  35.3451  35.7586  36.0898  36.4152  36.7901  37.2010
    37.5027  37.9911  38.0157  38.2807  39.0512  40.8479  41.4149  41.8220
    42.0877  42.4096  42.6546  43.2240  43.3280  43.4905  43.8211  44.3083
    44.7064  45.1224  45.2551  45.7304  45.9037  46.6161  46.6320  46.9974
    47.7110  47.8359  48.3413  48.8271  49.2337  49.3959  50.0471  50.1248
    50.2426  50.5433  51.3185  52.0571  52.2759  52.3781  53.1817

          k = 0.0000 0.2533-0.2634 (  3666 PWs)   bands (ev):

   -33.6420 -33.6420 -33.6151 -33.6151  -3.3539  -3.3539  -3.0341  -3.0341
    -2.9725  -2.9725  -2.8516  -2.8516  -2.6643  -2.6643  -2.3671  -2.3671
     4.8333   4.8333   6.1435   6.1435   7.3593   7.3593   7.8411   7.8411
    19.3655  19.3655  19.8426  19.8426  20.5827  20.5827  21.4210  21.4210
    21.4997  21.4997  22.5507  22.5507  23.9451  23.9451  24.1757  24.1757
    24.8120  24.8120  25.9506  25.9506  26.3266  26.3266  27.1457  27.1457
    32.2922  32.2922  32.3485  32.3485  33.6867  33.6867  34.0646  34.0646
    34.8318  34.8318  35.7525  35.7525  36.3017  36.3017  37.1884  37.1884
    37.2893  37.2893  38.1170  38.1170  40.1790  40.1790  41.7447  41.7447
    42.7031  42.7031  43.0259  43.0259  43.8227  43.8227  43.8745  43.8745
    44.6432  44.6432  45.0918  45.0918  45.6436  45.6436  46.7815  46.7815
    47.6036  47.6036  48.6147  48.6147  49.4642  49.4642  49.6082  49.6083
    50.5759  50.5761  51.8639  51.8640  52.4060  52.4063  53.3371

          k =-0.5000 0.0000 0.0000 (  3722 PWs)   bands (ev):

   -33.6412 -33.6412 -33.6195 -33.6195  -3.4926  -3.4926  -3.3019  -3.3019
    -2.9829  -2.9829  -2.9734  -2.9734  -2.5231  -2.5231  -2.4603  -2.4603
     5.6893   5.6893   6.3753   6.3753   6.5761   6.5761   7.7767   7.7767
    18.3368  18.3368  20.0066  20.0066  20.1583  20.1583  21.2297  21.2297
    21.5500  21.5500  24.1674  24.1674  24.3017  24.3017  24.7126  24.7126
    25.3968  25.3968  26.3877  26.3877  27.3703  27.3703  28.1494  28.1494
    32.3625  32.3625  33.2135  33.2135  33.9070  33.9070  34.1038  34.1038
    34.7458  34.7458  34.8725  34.8725  35.7687  35.7687  35.8608  35.8608
    36.9940  36.9940  37.0609  37.0609  38.8602  38.8602  39.8088  39.8088
    41.3747  41.3747  42.6974  42.6974  42.7203  42.7203  44.2615  44.2615
    45.1344  45.1344  45.7196  45.7196  46.0265  46.0265  46.3759  46.3759
    47.5268  47.5268  48.6121  48.6121  48.9341  48.9341  49.9609  49.9610
    50.7084  50.7084  51.4034  51.4036  51.9230  51.9233  52.6219

          k =-0.5000 0.0000 0.1317 (  3710 PWs)   bands (ev):

   -33.6401 -33.6401 -33.6171 -33.6171  -3.5254  -3.5254  -3.2553  -3.2553
    -2.9853  -2.9853  -2.9629  -2.9629  -2.5152  -2.5152  -2.4646  -2.4646
     5.7466   5.7466   6.3626   6.3626   6.5592   6.5592   7.7094   7.7094
    18.4082  18.4082  19.8853  19.8853  20.5523  20.5523  21.3606  21.3606
    21.8770  21.8770  23.5055  23.5055  23.9076  23.9076  24.2147  24.2147
    25.6997  25.6997  26.7364  26.7364  27.3239  27.3239  28.1251  28.1251
    32.3420  32.3420  33.0413  33.0413  33.6332  33.6332  34.5592  34.5592
    34.8870  34.8870  35.1259  35.1259  35.8111  35.8111  35.8813  35.8813
    36.5408  36.5408  37.3763  37.3763  39.1313  39.1313  40.4903  40.4903
    41.5002  41.5002  42.0722  42.0722  43.4189  43.4189  43.7984  43.7984
    44.3756  44.3756  45.4092  45.4092  45.5403  45.5403  46.6375  46.6375
    47.3751  47.3751  48.1557  48.1557  49.4819  49.4820  49.5864  49.5866
    50.5624  50.5626  51.3879  51.3880  52.3902  52.3903  53.2681

          k =-0.5000 0.0000-0.2634 (  3680 PWs)   bands (ev):

   -33.6347 -33.6347 -33.6149 -33.6149  -3.5420  -3.5420  -3.2167  -3.2167
    -2.9751  -2.9751  -2.9572  -2.9572  -2.4968  -2.4968  -2.4676  -2.4676
     5.8266   5.8266   6.2874   6.2874   6.5922   6.5922   7.6356   7.6356
    18.4516  18.4516  20.0003  20.0003  20.6945  20.6945  21.8259  21.8259
    22.2163  22.2163  22.9613  22.9613  23.4081  23.4081  23.5895  23.5895
    25.8623  25.8623  27.1815  27.1815  27.2005  27.2005  28.0547  28.0547
    32.4083  32.4083  32.6651  32.6651  33.9463  33.9463  34.4019  34.4019
    35.1555  35.1555  35.2599  35.2599  35.7647  35.7647  35.9453  35.9453
    36.4257  36.4257  37.5584  37.5584  39.6200  39.6200  40.9416  40.9416
    41.8775  41.8775  42.5295  42.5295  42.6062  42.6062  43.4006  43.4006
    43.8533  43.8533  45.2012  45.2012  45.3354  45.3354  45.7867  45.7867
    47.3047  47.3047  48.4105  48.4105  49.2614  49.2617  50.2744  50.2745
    51.1651  51.1653  51.4878  51.4879  51.7698  51.7700  52.6295

          k =-0.5000 0.2533 0.0000 (  3686 PWs)   bands (ev):

   -33.6326 -33.6326 -33.6195 -33.6195  -3.4558  -3.4558  -3.3941  -3.3941
    -3.0255  -3.0255  -2.9780  -2.9780  -2.4591  -2.4591  -2.4171  -2.4171
     5.9609   5.9609   6.3923   6.3923   6.8791   6.8791   7.3620   7.3620
    18.9265  18.9265  19.1138  19.1138  20.5124  20.5124  21.7856  21.7856
    22.2794  22.2794  22.8070  22.8070  23.8316  23.8316  24.2401  24.2401
    25.5885  25.5885  26.0321  26.0321  26.9887  26.9887  27.2867  27.2867
    32.5138  32.5138  33.4762  33.4762  34.4431  34.4431  34.7634  34.7634
    34.9461  34.9461  35.2143  35.2143  36.0291  36.0291  36.4795  36.4795
    37.1223  37.1223  37.4487  37.4487  39.5761  39.5761  40.0089  40.0089
    41.6842  41.6842  42.4228  42.4228  43.9478  43.9478  44.3731  44.3731
    44.7866  44.7866  45.4037  45.4037  46.0787  46.0787  47.1373  47.1373
    47.1722  47.1722  48.4236  48.4236  48.7260  48.7260  49.6812  49.6813
    49.9611  49.9612  50.3300  50.3301  51.1726  51.1728  52.5835

          k =-0.5000 0.2533 0.1317 (  3692 PWs)   bands (ev):

   -33.6305 -33.6305 -33.6232 -33.6232  -3.4979  -3.4979  -3.3687  -3.3687
    -3.0163  -3.0163  -2.9666  -2.9666  -2.4695  -2.4695  -2.4179  -2.4179
     6.0216   6.0216   6.4357   6.4357   6.8188   6.8188   7.2728   7.2728
    19.1791  19.1791  19.4024  19.4024  20.5633  20.5633  21.2723  21.2723
    21.8785  21.8785  23.1142  23.1142  23.8270  23.8270  24.4524  24.4524
    25.5066  25.5066  26.2024  26.2024  26.5847  26.5847  27.1723  27.1723
    32.4344  32.4344  33.2123  33.2123  34.2842  34.2842  34.7455  34.7455
    35.3906  35.3906  35.6944  35.6944  36.0617  36.0617  36.6807  36.6807
    37.0506  37.0506  37.4489  37.4489  39.9063  39.9063  40.5857  40.5857
    41.6374  41.6374  42.4341  42.4341  43.3501  43.3501  43.8328  43.8328
    44.8837  44.8837  45.4745  45.4745  46.1318  46.1318  46.5803  46.5803
    47.4416  47.4416  47.9003  47.9003  48.4818  48.4818  49.1978  49.1978
    49.9432  49.9433  50.6007  50.6008  51.7935  51.7944  51.9913

          k =-0.5000 0.2533-0.2634 (  3704 PWs)   bands (ev):

   -33.6309 -33.6309 -33.6262 -33.6262  -3.5313  -3.5313  -3.3633  -3.3633
    -3.0002  -3.0002  -2.9600  -2.9600  -2.4722  -2.4722  -2.4282  -2.4282
     6.1018   6.1018   6.4550   6.4550   6.7853   6.7853   7.1595   7.1595
    19.4548  19.4548  19.9089  19.9089  20.6427  20.6427  20.9262  20.9262
    21.1159  21.1159  23.2681  23.2681  24.1097  24.1097  24.5069  24.5069
    25.6513  25.6513  25.7468  25.7468  26.6651  26.6651  26.9387  26.9387
    32.3965  32.3965  32.9363  32.9363  34.4192  34.4192  34.5534  34.5534
    35.6792  35.6792  35.9551  35.9551  36.3196  36.3196  36.7405  36.7405
    37.0843  37.0843  37.5523  37.5523  40.6288  40.6288  40.8280  40.8280
    41.6726  41.6726  42.4076  42.4076  42.4909  42.4909  43.9279  43.9279
    44.6316  44.6316  45.4173  45.4173  45.8381  45.8381  46.3352  46.3352
    46.9388  46.9388  48.2247  48.2247  48.5949  48.5949  49.2782  49.2783
    49.4387  49.4388  50.2831  50.2831  51.3423  51.3427  51.7459

     the Fermi energy is    46.4390 ev

!    total energy              =   -1521.64887667 Ry
     Harris-Foulkes estimate   =   -1521.64887943 Ry
     estimated scf accuracy    <       0.00000369 Ry

     The total energy is the sum of the following terms:

     one-electron contribution =     308.39325486 Ry
     hartree contribution      =     109.32426011 Ry
     xc contribution           =    -186.45914215 Ry
     ewald contribution        =   -1752.52437797 Ry
     smearing contrib. (-TS)   =      -0.38287152 Ry

     convergence has been achieved in  11 iterations

     Forces acting on atoms (Ry/au):

     atom    1 type  1   force =     0.00000000   -0.05894070   -0.07123110
     atom    2 type  1   force =     0.00000000    0.05894070    0.07123110
     atom    3 type  1   force =     0.00000000   -0.05894070    0.07123110
     atom    4 type  1   force =     0.00000000    0.05894070   -0.07123110
     atom    5 type  1   force =     0.00000000    0.13958946   -0.28916911
     atom    6 type  1   force =     0.00000000   -0.13958946    0.28916911
     atom    7 type  1   force =     0.00000000    0.13958946    0.28916911
     atom    8 type  1   force =     0.00000000   -0.13958946   -0.28916911
     atom    9 type  2   force =     0.00000000   -0.16947613   -0.02766997
     atom   10 type  2   force =     0.00000000    0.16947613    0.02766997
     atom   11 type  2   force =     0.00000000   -0.16947613    0.02766997
     atom   12 type  2   force =     0.00000000    0.16947613   -0.02766997

     Total force =     0.751371     Total SCF correction =     0.000000


     entering subroutine stress ...

          total   stress  (Ry/bohr**3)                   (kbar)     P= 6495.91
   0.04911381   0.00000000   0.00000000       7224.89      0.00      0.00
   0.00000000   0.04013628   0.00000000          0.00   5904.25      0.00
   0.00000000   0.00000000   0.04322472          0.00      0.00   6358.58


     BFGS Geometry Optimization

     number of scf cycles    =   1
     number of bfgs steps    =   0

     enthalpy new            =   -1521.6488766654 Ry

     new trust radius        =       0.5000000000 bohr
     new conv_thr            =       0.0001000000 Ry

     new unit-cell volume =   1075.77662 a.u.^3 (   159.41365 Ang^3 )

CELL_PARAMETERS (alat=  7.01510508)
   1.085136619   0.000000000   0.000000000
   0.000000000   1.407520827   0.000000000
   0.000000000   0.000000000   2.040235545

ATOMIC_POSITIONS (crystal)
Co       0.750000000   0.825958299   0.435365057
Co       0.250000000   0.174041701   0.564634943
Co       0.750000000   0.325958299   0.064634943
Co       0.250000000   0.674041701   0.935365057
Co       0.250000000   0.538134449   0.280839123
Co       0.750000000   0.461865551   0.719160877
Co       0.250000000   0.038134449   0.219160877
Co       0.750000000   0.961865551   0.780839123
Si       0.250000000   0.201581074   0.893455906
Si       0.750000000   0.798418926   0.106544094
Si       0.250000000   0.701581074   0.606544094
Si       0.750000000   0.298418926   0.393455906



     Writing output data file Prototype-La-oP12-Co2Si.save
     NEW-OLD atomic charge density approx. for the potential
     NEW k-points:
        k(    1) = (   0.0000000   0.0000000   0.0000000), wk =   0.0833333
        k(    2) = (   0.0000000   0.0000000   0.1225349), wk =   0.1666667
        k(    3) = (   0.0000000   0.0000000  -0.2450697), wk =   0.0833333
        k(    4) = (   0.0000000   0.2368230   0.0000000), wk =   0.1666667
        k(    5) = (   0.0000000   0.2368230   0.1225349), wk =   0.3333333
        k(    6) = (   0.0000000   0.2368230  -0.2450697), wk =   0.1666667
        k(    7) = (  -0.4607715   0.0000000   0.0000000), wk =   0.0833333
        k(    8) = (  -0.4607715   0.0000000   0.1225349), wk =   0.1666667
        k(    9) = (  -0.4607715   0.0000000  -0.2450697), wk =   0.0833333
        k(   10) = (  -0.4607715   0.2368230   0.0000000), wk =   0.1666667
        k(   11) = (  -0.4607715   0.2368230   0.1225349), wk =   0.3333333
        k(   12) = (  -0.4607715   0.2368230  -0.2450697), wk =   0.1666667

     total cpu time spent up to now is      188.1 secs

     Self-consistent Calculation

     iteration #  1     ecut=    40.00 Ry     beta=0.70
     CG style diagonalization
     c_bands:  1 eigenvalues not converged
     c_bands:  1 eigenvalues not converged
     c_bands:  1 eigenvalues not converged
     c_bands:  1 eigenvalues not converged
     c_bands:  3 eigenvalues not converged
     ethr =  1.00E-06,  avg # of iterations = 20.4

     total cpu time spent up to now is      237.1 secs

     total energy              =   -1522.70817772 Ry
     Harris-Foulkes estimate   =   -1534.53403949 Ry
     estimated scf accuracy    <      15.38844349 Ry

     iteration #  2     ecut=    40.00 Ry     beta=0.70
     CG style diagonalization
     ethr =  8.95E-03,  avg # of iterations =  3.7

     total cpu time spent up to now is      245.4 secs

     total energy              =   -1524.83729381 Ry
     Harris-Foulkes estimate   =   -1530.25343286 Ry
     estimated scf accuracy    <       8.97318006 Ry

     iteration #  3     ecut=    40.00 Ry     beta=0.70
     CG style diagonalization
     ethr =  5.22E-03,  avg # of iterations =  3.5

     total cpu time spent up to now is      253.1 secs

     total energy              =   -1527.78966124 Ry
     Harris-Foulkes estimate   =   -1528.16918702 Ry
     estimated scf accuracy    <       0.71973156 Ry

     iteration #  4     ecut=    40.00 Ry     beta=0.70
     CG style diagonalization
     ethr =  4.18E-04,  avg # of iterations =  3.6

     total cpu time spent up to now is      261.0 secs

     total energy              =   -1527.92976033 Ry
     Harris-Foulkes estimate   =   -1527.97383266 Ry
     estimated scf accuracy    <       0.09798063 Ry

     iteration #  5     ecut=    40.00 Ry     beta=0.70
     CG style diagonalization
     ethr =  5.70E-05,  avg # of iterations =  3.6

     total cpu time spent up to now is      268.8 secs

     total energy              =   -1527.94189687 Ry
     Harris-Foulkes estimate   =   -1527.94755598 Ry
     estimated scf accuracy    <       0.01434413 Ry

     iteration #  6     ecut=    40.00 Ry     beta=0.70
     CG style diagonalization
     ethr =  8.34E-06,  avg # of iterations =  4.1

     total cpu time spent up to now is      278.0 secs

     total energy              =   -1527.94437359 Ry
     Harris-Foulkes estimate   =   -1527.94535773 Ry
     estimated scf accuracy    <       0.00169708 Ry

     iteration #  7     ecut=    40.00 Ry     beta=0.70
     CG style diagonalization
     ethr =  9.87E-07,  avg # of iterations =  4.2

     total cpu time spent up to now is      287.5 secs

     total energy              =   -1527.94512128 Ry
     Harris-Foulkes estimate   =   -1527.94526370 Ry
     estimated scf accuracy    <       0.00032009 Ry

     iteration #  8     ecut=    40.00 Ry     beta=0.70
     CG style diagonalization
     ethr =  1.86E-07,  avg # of iterations =  3.5

     total cpu time spent up to now is      295.2 secs

     End of self-consistent calculation

          k = 0.0000 0.0000 0.0000 (  3675 PWs)   bands (ev):

   -41.3279 -41.3239 -41.3180 -41.3084 -10.1334 -10.1134 -10.0590 -10.0423
   -10.0327 -10.0259  -9.9838  -9.9288  -9.8790  -9.8083  -9.7209  -9.6643
    -3.4449  -2.2515  -1.9293  -1.5999  -1.2970  -0.8186  -0.7968  -0.7671
    11.7576  12.5227  12.8912  13.3772  13.4378  13.4904  14.1658  14.4141
    14.8975  15.0750  15.1716  15.3654  15.6039  16.0722  16.5656  16.5776
    16.5974  16.9975  17.1803  17.8171  18.1678  18.5461  19.1388  19.5881
    24.5849  24.9035  25.5095  25.5368  25.6832  25.8669  25.9416  26.2027
    26.4028  26.8614  27.2435  27.2679  27.3692  28.4244  28.4929  28.5515
    28.5829  28.8815  29.2627  29.3198  29.7155  31.3608  32.4262  32.8802
    32.9312  33.5660  33.9310  34.3805  34.4436  34.6566  34.8473  34.9846
    35.2574  35.9785  36.2853  36.4463  36.6471  36.7240  37.1870  37.3914
    38.1957  38.4679  39.2019  39.2708  39.4426  39.6337  40.1748  41.0163
    41.5877  41.5938  41.8907  41.9240  41.9301  41.9950  42.8814

          k = 0.0000 0.0000 0.1225 (  3675 PWs)   bands (ev):

   -41.3298 -41.3237 -41.3176 -41.3071 -10.1096 -10.1045 -10.0577 -10.0481
   -10.0327 -10.0283  -9.9732  -9.9528  -9.8637  -9.8326  -9.7089  -9.6836
    -3.3251  -2.5785  -1.6512  -1.5650  -1.2992  -0.8758  -0.8202  -0.8048
    11.8395  12.4511  12.9657  13.3617  13.3845  13.7220  14.0960  14.4025
    14.9601  15.1679  15.3452  15.4256  15.5924  15.8534  16.1888  16.5337
    16.6249  17.2977  17.3979  17.5365  18.0887  18.1991  19.1803  19.5110
    24.5751  24.9479  25.3320  25.4325  25.7938  25.8166  26.1426  26.2748
    26.7708  26.8304  27.1006  27.3567  27.6820  28.2147  28.3397  28.4145
    28.7343  28.8377  29.1623  29.2075  30.2138  31.7621  32.5134  32.7994
    33.4724  33.5356  34.0906  34.3795  34.6113  34.7517  34.9824  35.0283
    35.2182  35.3111  36.1493  36.2344  36.4669  36.7925  37.1809  37.4468
    37.7271  38.0912  38.4607  39.0763  39.7354  40.0335  40.0794  40.2113
    40.4266  40.4484  41.7653  42.1609  42.2874  42.5593  43.1605

          k = 0.0000 0.0000-0.2451 (  3690 PWs)   bands (ev):

   -41.3271 -41.3271 -41.3217 -41.3217 -10.1007 -10.1007 -10.0852 -10.0852
   -10.0266 -10.0266  -9.9574  -9.9574  -9.8602  -9.8602  -9.7085  -9.7085
    -3.0044  -3.0044  -1.5061  -1.5061  -1.1402  -1.1402  -0.8185  -0.8185
    12.0929  12.0929  13.3451  13.3451  13.5175  13.5175  14.3169  14.3169
    14.9408  14.9408  15.5586  15.5586  15.5797  15.5797  16.4738  16.4738
    16.7924  16.7924  17.6577  17.6577  17.8141  17.8141  19.3223  19.3223
    24.8096  24.8096  25.0608  25.0608  25.9275  25.9275  26.4381  26.4381
    27.1068  27.1068  27.3403  27.3403  27.9630  27.9630  28.0402  28.0402
    28.7308  28.7308  29.0686  29.0686  31.1944  31.1944  33.1372  33.1372
    33.7175  33.7175  34.4762  34.4762  34.7809  34.7809  34.9026  34.9026
    35.3673  35.3673  35.7710  35.7710  36.5199  36.5199  36.9048  36.9048
    37.5507  37.5507  38.1309  38.1309  39.5397  39.5397  40.1764  40.1764
    40.6666  40.6667  41.7603  41.7604  42.7362  42.7362  43.7926

          k = 0.0000 0.2368 0.0000 (  3664 PWs)   bands (ev):

   -41.3336 -41.3268 -41.3049 -41.2916 -10.1798 -10.1758 -10.0412 -10.0146
   -10.0070 -10.0061  -9.9804  -9.9436  -9.8564  -9.8039  -9.7024  -9.6824
    -3.0315  -2.1834  -1.9455  -1.6496  -1.3848  -1.2280  -0.6984  -0.6876
    12.4051  13.1888  13.2990  13.4013  13.4858  13.5403  13.5569  13.9808
    14.5389  14.5841  14.8393  15.4379  15.5812  16.4049  16.6429  16.7960
    16.9677  17.1651  17.3049  17.4427  17.6705  17.7499  18.2186  18.3516
    25.1143  25.3259  25.5073  25.9916  26.4060  26.5488  26.5625  26.8108
    26.8757  26.8904  27.2220  27.6969  27.7984  27.9575  28.3965  28.9396
    29.0616  29.0681  29.1568  29.2388  30.0668  32.4989  32.5846  32.6192
    32.8151  33.1308  33.4487  34.0440  34.4594  34.6606  34.7564  34.9319
    35.4403  35.7270  35.7473  36.8159  36.8523  36.9447  37.3888  37.7330
    37.7978  38.1386  38.5261  38.6779  39.0975  39.3959  39.4378  39.7798
    40.7131  40.8899  41.2976  41.4136  41.7386  42.1602  43.2112

          k = 0.0000 0.2368 0.1225 (  3669 PWs)   bands (ev):

   -41.3299 -41.3225 -41.3111 -41.3038 -10.1841 -10.1697 -10.0361 -10.0253
   -10.0172 -10.0074  -9.9733  -9.9509  -9.8534  -9.8157  -9.7068  -9.6896
    -2.9257  -2.2960  -2.0248  -1.6145  -1.3616  -1.0886  -0.7782  -0.7377
    12.5187  13.0424  13.2143  13.4353  13.4933  13.5683  13.8654  14.1618
    14.5168  14.7456  14.8427  15.1961  15.6600  16.4051  16.5165  16.6057
    16.8144  16.9861  17.2007  17.5598  17.6146  17.8237  18.1248  18.3658
    25.1885  25.3597  25.7221  25.8910  26.4036  26.4690  26.5874  26.8088
    26.9553  26.9969  27.2938  27.7525  27.7631  28.1224  28.4028  28.7360
    28.8101  29.1004  29.1686  29.2270  30.5404  32.6516  32.8466  32.8574
    33.1664  33.2916  33.6998  33.8852  34.2256  34.3020  34.7955  34.8659
    35.2433  35.4988  35.6043  36.3248  36.6977  36.7558  37.1288  37.6119
    38.0374  38.1856  38.2376  38.7043  39.0618  39.5800  39.7724  40.1313
    40.3034  40.6340  40.9432  41.2791  41.6803  42.3676  42.5893

          k = 0.0000 0.2368-0.2451 (  3666 PWs)   bands (ev):

   -41.3216 -41.3216 -41.3103 -41.3103 -10.1670 -10.1670 -10.0322 -10.0322
   -10.0176 -10.0176  -9.9656  -9.9656  -9.8284  -9.8284  -9.6974  -9.6974
    -2.6451  -2.6451  -1.8484  -1.8484  -1.0807  -1.0807  -0.8470  -0.8470
    12.7623  12.7623  13.2984  13.2984  13.6344  13.6344  14.2607  14.2607
    14.4815  14.4815  15.1083  15.1083  15.9951  15.9951  16.4537  16.4537
    16.5844  16.5844  17.4533  17.4533  17.7551  17.7551  18.2242  18.2242
    25.4832  25.4832  25.5376  25.5376  26.5407  26.5407  26.7146  26.7146
    27.0842  27.0842  27.5954  27.5954  28.0245  28.0245  28.6010  28.6010
    28.7818  28.7818  29.1433  29.1433  31.5866  31.5866  33.3237  33.3237
    33.4086  33.4086  33.9926  33.9926  34.2511  34.2511  34.3992  34.3992
    35.7158  35.7158  35.7160  35.7160  36.2957  36.2957  37.1573  37.1573
    38.2570  38.2570  38.2836  38.2836  39.2137  39.2137  39.3896  39.3896
    40.2445  40.2445  41.8492  41.8493  41.8782  41.8784  42.8326

          k =-0.4608 0.0000 0.0000 (  3722 PWs)   bands (ev):

   -41.3411 -41.3411 -41.3354 -41.3354 -10.2351 -10.2351 -10.1584 -10.1584
   -10.0447 -10.0447 -10.0305 -10.0305  -9.7806  -9.7806  -9.7455  -9.7455
    -2.2599  -2.2599  -1.6979  -1.6979  -1.5306  -1.5306  -0.8256  -0.8256
    12.0133  12.0133  13.0480  13.0480  13.3132  13.3132  14.1671  14.1671
    14.2723  14.2723  16.0237  16.0237  16.2661  16.2661  16.7013  16.7013
    17.1695  17.1695  17.8606  17.8606  18.3668  18.3668  19.0946  19.0946
    25.3414  25.3414  26.1270  26.1270  26.4969  26.4969  26.5506  26.5506
    26.7862  26.7862  26.8285  26.8285  27.5212  27.5212  28.0786  28.0786
    28.3823  28.3823  28.5482  28.5482  30.2591  30.2591  31.7921  31.7921
    33.1710  33.1710  33.8281  33.8281  34.1370  34.1370  35.4692  35.4692
    36.3046  36.3046  36.9454  36.9454  37.0455  37.0455  37.7010  37.7010
    38.5925  38.5925  38.8685  38.8685  39.0287  39.0287  39.3605  39.3606
    39.9656  39.9656  41.5655  41.5654  41.9309  41.9312  42.3097

          k =-0.4608 0.0000 0.1225 (  3710 PWs)   bands (ev):

   -41.3377 -41.3377 -41.3286 -41.3286 -10.2384 -10.2384 -10.1360 -10.1360
   -10.0355 -10.0355 -10.0240 -10.0240  -9.7762  -9.7762  -9.7490  -9.7490
    -2.2258  -2.2258  -1.7186  -1.7186  -1.5337  -1.5337  -0.8432  -0.8432
    12.0157  12.0157  12.9554  12.9554  13.6564  13.6564  14.0444  14.0444
    14.6401  14.6401  15.6987  15.6987  15.9258  15.9258  16.4315  16.4315
    17.4505  17.4505  17.9819  17.9819  18.3150  18.3150  19.0770  19.0770
    25.3986  25.3986  25.9518  25.9518  26.3251  26.3251  26.6848  26.6848
    26.9474  26.9474  27.1778  27.1778  27.6051  27.6051  27.9483  27.9483
    28.1073  28.1073  28.6341  28.6341  30.5056  30.5056  32.3789  32.3789
    33.1762  33.1762  33.6675  33.6675  34.6955  34.6955  35.1770  35.1770
    35.6015  35.6015  36.3289  36.3289  36.7642  36.7642  37.1236  37.1236
    38.0739  38.0739  38.5080  38.5080  38.9281  38.9281  40.2663  40.2664
    40.9926  40.9927  41.7870  41.7872  42.0312  42.0314  42.3702

          k =-0.4608 0.0000-0.2451 (  3680 PWs)   bands (ev):

   -41.3216 -41.3216 -41.3212 -41.3212 -10.2264 -10.2264 -10.1101 -10.1101
   -10.0217 -10.0217 -10.0121 -10.0121  -9.7563  -9.7563  -9.7501  -9.7501
    -2.1841  -2.1841  -1.7515  -1.7515  -1.5295  -1.5295  -0.8616  -0.8616
    12.0042  12.0042  12.9865  12.9865  13.7305  13.7305  14.5707  14.5707
    14.6034  14.6034  15.4052  15.4052  15.6555  15.6555  16.0784  16.0784
    17.6706  17.6706  18.1174  18.1174  18.2215  18.2215  19.0584  19.0584
    25.4826  25.4826  25.7151  25.7151  26.4341  26.4341  26.6418  26.6418
    27.2729  27.2729  27.4175  27.4175  27.4873  27.4873  27.8652  27.8652
    27.9696  27.9696  28.6423  28.6423  30.8158  30.8158  33.0737  33.0737
    33.1209  33.1209  34.1501  34.1501  34.6186  34.6186  34.7411  34.7411
    35.4879  35.4879  35.4954  35.4954  35.8218  35.8218  37.0725  37.0725
    37.6212  37.6212  38.2982  38.2982  39.9026  39.9026  40.0195  40.0196
    41.6539  41.6541  41.8551  41.8551  41.9684  41.9685  42.4853

          k =-0.4608 0.2368 0.0000 (  3686 PWs)   bands (ev):

   -41.3310 -41.3310 -41.3208 -41.3208 -10.2160 -10.2160 -10.1885 -10.1885
   -10.0381 -10.0381 -10.0230 -10.0230  -9.7400  -9.7400  -9.7211  -9.7211
    -2.0347  -2.0347  -1.7115  -1.7115  -1.4062  -1.4062  -1.1036  -1.1036
    12.4663  12.4663  12.6550  12.6550  13.4334  13.4334  14.6401  14.6401
    14.7681  14.7681  15.3309  15.3309  15.9812  15.9812  16.1876  16.1876
    17.3800  17.3800  17.5673  17.5673  18.1459  18.1459  18.3733  18.3733
    25.6112  25.6112  26.2807  26.2807  26.7208  26.7208  26.9062  26.9062
    27.1842  27.1842  27.1925  27.1925  28.0188  28.0188  28.1854  28.1854
    28.4868  28.4868  28.6823  28.6823  31.1171  31.1171  31.8072  31.8072
    33.5518  33.5518  33.8255  33.8255  34.8871  34.8871  35.4187  35.4187
    35.7963  35.7963  36.2832  36.2832  36.5105  36.5105  37.6694  37.6694
    37.7496  37.7496  38.4640  38.4640  38.9218  38.9218  39.5621  39.5621
    39.9844  39.9844  40.7137  40.7139  40.7569  40.7572  42.6980

          k =-0.4608 0.2368 0.1225 (  3692 PWs)   bands (ev):

   -41.3333 -41.3333 -41.3222 -41.3222 -10.2246 -10.2246 -10.1780 -10.1780
   -10.0413 -10.0413 -10.0234 -10.0234  -9.7545  -9.7545  -9.7197  -9.7197
    -1.9993  -1.9993  -1.6995  -1.6995  -1.4321  -1.4321  -1.1347  -1.1347
    12.5726  12.5726  12.8354  12.8354  13.5422  13.5422  14.0888  14.0888
    14.6337  14.6337  15.4870  15.4870  16.0428  16.0428  16.4717  16.4717
    17.2752  17.2752  17.6729  17.6729  17.8731  17.8731  18.3058  18.3058
    25.6022  25.6022  26.1445  26.1445  26.6379  26.6379  26.8990  26.8990
    27.3511  27.3511  27.4954  27.4954  28.0358  28.0358  28.2427  28.2427
    28.4313  28.4313  28.7085  28.7085  31.3693  31.3693  32.2702  32.2702
    33.5094  33.5094  34.0132  34.0132  34.5411  34.5411  34.8974  34.8974
    35.7163  35.7163  35.9939  35.9939  36.6017  36.6017  37.0442  37.0442
    37.8998  37.8998  38.3140  38.3140  38.8740  38.8740  39.5962  39.5963
    39.9201  39.9201  40.7027  40.7028  41.5156  41.5161  42.0119

          k =-0.4608 0.2368-0.2451 (  3704 PWs)   bands (ev):

   -41.3398 -41.3398 -41.3250 -41.3250 -10.2409 -10.2409 -10.1777 -10.1777
   -10.0436 -10.0436 -10.0225 -10.0225  -9.7556  -9.7556  -9.7345  -9.7345
    -1.9571  -1.9571  -1.6956  -1.6956  -1.4531  -1.4531  -1.1705  -1.1705
    12.6680  12.6680  13.1843  13.1843  13.6005  13.6005  13.9069  13.9069
    14.0455  14.0455  15.6132  15.6132  16.2804  16.2804  16.6517  16.6517
    17.2902  17.2902  17.3599  17.3599  17.9244  17.9244  18.1492  18.1492
    25.6087  25.6087  25.9772  25.9772  26.6916  26.6916  26.8411  26.8411
    27.4515  27.4515  27.7524  27.7524  28.1142  28.1142  28.2383  28.2383
    28.4314  28.4314  28.7488  28.7488  31.7700  31.7700  32.8261  32.8261
    33.5605  33.5605  33.8752  33.8752  33.8844  33.8844  34.7911  34.7911
    35.2673  35.2673  36.0364  36.0364  36.4368  36.4368  37.1686  37.1686
    37.5105  37.5105  38.4449  38.4449  38.6609  38.6609  39.6919  39.6919
    39.8826  39.8826  40.4008  40.4009  41.2416  41.2416  42.3958

     the Fermi energy is    36.9917 ev

!    total energy              =   -1527.94514051 Ry
     Harris-Foulkes estimate   =   -1527.94518180 Ry
     estimated scf accuracy    <       0.00004482 Ry

     The total energy is the sum of the following terms:

     one-electron contribution =     144.02029716 Ry
     hartree contribution      =     136.91895819 Ry
     xc contribution           =    -179.93053413 Ry
     ewald contribution        =   -1628.50221915 Ry
     smearing contrib. (-TS)   =      -0.45164257 Ry

     convergence has been achieved in   8 iterations

     Forces acting on atoms (Ry/au):

     atom    1 type  1   force =     0.00000000   -0.04761452   -0.01868651
     atom    2 type  1   force =     0.00000000    0.04761452    0.01868651
     atom    3 type  1   force =     0.00000000   -0.04761452    0.01868651
     atom    4 type  1   force =     0.00000000    0.04761452   -0.01868651
     atom    5 type  1   force =     0.00000000    0.06882713   -0.16584954
     atom    6 type  1   force =     0.00000000   -0.06882713    0.16584954
     atom    7 type  1   force =     0.00000000    0.06882713    0.16584954
     atom    8 type  1   force =     0.00000000   -0.06882713   -0.16584954
     atom    9 type  2   force =     0.00000000   -0.11378773    0.01401131
     atom   10 type  2   force =     0.00000000    0.11378773   -0.01401131
     atom   11 type  2   force =     0.00000000   -0.11378773   -0.01401131
     atom   12 type  2   force =     0.00000000    0.11378773    0.01401131

     Total force =     0.438194     Total SCF correction =     0.000000


     entering subroutine stress ...

          total   stress  (Ry/bohr**3)                   (kbar)     P= 2599.23
   0.01964304   0.00000000   0.00000000       2889.59      0.00      0.00
   0.00000000   0.01613160   0.00000000          0.00   2373.04      0.00
   0.00000000   0.00000000   0.01723298          0.00      0.00   2535.06


     number of scf cycles    =   2
     number of bfgs steps    =   1

     enthalpy old            =   -1521.6488766654 Ry
     enthalpy new            =   -1527.9451405079 Ry

     CASE: enthalpy_new < enthalpy_old

     small trust_radius: resetting bfgs history

     new trust radius        =       3.2213629086 bohr
     new conv_thr            =       0.0001000000 Ry

     new unit-cell volume =   3220.74012 a.u.^3 (   477.26444 Ang^3 )

CELL_PARAMETERS (alat=  7.01510508)
   1.618021051   0.000000000   0.000000000
   0.000000000   1.975159900   0.000000000
   0.000000000   0.000000000   2.919219247

ATOMIC_POSITIONS (crystal)
Co       0.750000000   0.821136042   0.434059446
Co       0.250000000   0.178863958   0.565940554
Co       0.750000000   0.321136042   0.065940554
Co       0.250000000   0.678863958   0.934059446
Co       0.250000000   0.545105057   0.269251355
Co       0.750000000   0.454894943   0.730748645
Co       0.250000000   0.045105057   0.230748645
Co       0.750000000   0.954894943   0.769251355
Si       0.250000000   0.190056989   0.894434864
Si       0.750000000   0.809943011   0.105565136
Si       0.250000000   0.690056989   0.605565136
Si       0.750000000   0.309943011   0.394434864



     Writing output data file Prototype-La-oP12-Co2Si.save
     NEW-OLD atomic charge density approx. for the potential
     NEW k-points:
        k(    1) = (   0.0000000   0.0000000   0.0000000), wk =   0.0833333
        k(    2) = (   0.0000000   0.0000000   0.0856393), wk =   0.1666667
        k(    3) = (   0.0000000   0.0000000  -0.1712787), wk =   0.0833333
        k(    4) = (   0.0000000   0.1687627   0.0000000), wk =   0.1666667
        k(    5) = (   0.0000000   0.1687627   0.0856393), wk =   0.3333333
        k(    6) = (   0.0000000   0.1687627  -0.1712787), wk =   0.1666667
        k(    7) = (  -0.3090195   0.0000000   0.0000000), wk =   0.0833333
        k(    8) = (  -0.3090195   0.0000000   0.0856393), wk =   0.1666667
        k(    9) = (  -0.3090195   0.0000000  -0.1712787), wk =   0.0833333
        k(   10) = (  -0.3090195   0.1687627   0.0000000), wk =   0.1666667
        k(   11) = (  -0.3090195   0.1687627   0.0856393), wk =   0.3333333
        k(   12) = (  -0.3090195   0.1687627  -0.1712787), wk =   0.1666667

     total cpu time spent up to now is      298.8 secs

     Self-consistent Calculation

     iteration #  1     ecut=    40.00 Ry     beta=0.70
     CG style diagonalization
     c_bands:  1 eigenvalues not converged
     c_bands:  1 eigenvalues not converged
     c_bands:  1 eigenvalues not converged
     c_bands:  2 eigenvalues not converged
     c_bands:  2 eigenvalues not converged
     ethr =  1.00E-06,  avg # of iterations = 32.5

     total cpu time spent up to now is      367.2 secs

     total energy              =   -1447.31537035 Ry
     Harris-Foulkes estimate   =   -1666.92204788 Ry
     estimated scf accuracy    <     289.45920091 Ry

     iteration #  2     ecut=    40.00 Ry     beta=0.70
     CG style diagonalization
     c_bands:  1 eigenvalues not converged
     ethr =  1.00E-02,  avg # of iterations =  7.7

     total cpu time spent up to now is      384.1 secs

     total energy              =   -1448.09722758 Ry
     Harris-Foulkes estimate   =   -1545.68537623 Ry
     estimated scf accuracy    <     156.59493602 Ry

     iteration #  3     ecut=    40.00 Ry     beta=0.70
     CG style diagonalization
     ethr =  1.00E-02,  avg # of iterations =  7.0

     total cpu time spent up to now is      401.0 secs

     total energy              =   -1517.40340734 Ry
     Harris-Foulkes estimate   =   -1547.65478553 Ry
     estimated scf accuracy    <      72.08566595 Ry

     iteration #  4     ecut=    40.00 Ry     beta=0.70
     CG style diagonalization
     ethr =  1.00E-02,  avg # of iterations =  4.0

     total cpu time spent up to now is      410.0 secs

     total energy              =   -1519.96358806 Ry
     Harris-Foulkes estimate   =   -1524.87801946 Ry
     estimated scf accuracy    <      20.52154341 Ry

     iteration #  5     ecut=    40.00 Ry     beta=0.70
     CG style diagonalization
     ethr =  1.00E-02,  avg # of iterations =  3.2

     total cpu time spent up to now is      416.9 secs

     total energy              =   -1520.77919977 Ry
     Harris-Foulkes estimate   =   -1521.41700385 Ry
     estimated scf accuracy    <      10.54099270 Ry

     iteration #  6     ecut=    40.00 Ry     beta=0.70
     CG style diagonalization
     ethr =  6.13E-03,  avg # of iterations =  3.0

     total cpu time spent up to now is      423.4 secs

     total energy              =   -1518.54384560 Ry
     Harris-Foulkes estimate   =   -1520.91814290 Ry
     estimated scf accuracy    <       9.13150808 Ry

     iteration #  7     ecut=    40.00 Ry     beta=0.70
     CG style diagonalization
     ethr =  5.31E-03,  avg # of iterations =  3.4

     total cpu time spent up to now is      432.9 secs

     total energy              =   -1518.35171071 Ry
     Harris-Foulkes estimate   =   -1519.16312501 Ry
     estimated scf accuracy    <       2.59937466 Ry

     iteration #  8     ecut=    40.00 Ry     beta=0.70
     CG style diagonalization
     c_bands:  1 eigenvalues not converged
     ethr =  1.51E-03,  avg # of iterations =  4.2

     total cpu time spent up to now is      443.0 secs

     total energy              =   -1518.61741992 Ry
     Harris-Foulkes estimate   =   -1518.78373323 Ry
     estimated scf accuracy    <       0.36036918 Ry

     iteration #  9     ecut=    40.00 Ry     beta=0.70
     CG style diagonalization
     c_bands:  2 eigenvalues not converged
     c_bands:  2 eigenvalues not converged
     c_bands:  2 eigenvalues not converged
     c_bands:  2 eigenvalues not converged
     c_bands:  1 eigenvalues not converged
     c_bands:  1 eigenvalues not converged
     c_bands:  1 eigenvalues not converged
     c_bands:  1 eigenvalues not converged
     c_bands:  3 eigenvalues not converged
     ethr =  2.10E-04,  avg # of iterations =  4.7

     total cpu time spent up to now is      455.7 secs

     total energy              =   -1518.78167669 Ry
     Harris-Foulkes estimate   =   -1518.79675031 Ry
     estimated scf accuracy    <       0.04582897 Ry

     iteration # 10     ecut=    40.00 Ry     beta=0.70
     CG style diagonalization
     c_bands:  3 eigenvalues not converged
     c_bands:  3 eigenvalues not converged
     c_bands:  2 eigenvalues not converged
     c_bands:  2 eigenvalues not converged
     c_bands:  1 eigenvalues not converged
     c_bands:  1 eigenvalues not converged
     c_bands:  2 eigenvalues not converged
     ethr =  2.66E-05,  avg # of iterations =  5.1

     total cpu time spent up to now is      467.8 secs

     total energy              =   -1518.74705830 Ry
     Harris-Foulkes estimate   =   -1518.81129600 Ry
     estimated scf accuracy    <       0.14717126 Ry

     iteration # 11     ecut=    40.00 Ry     beta=0.70
     CG style diagonalization
     c_bands:  3 eigenvalues not converged
     c_bands:  1 eigenvalues not converged
     c_bands:  1 eigenvalues not converged
     c_bands:  1 eigenvalues not converged
     c_bands:  1 eigenvalues not converged
     ethr =  2.66E-05,  avg # of iterations =  5.0

     total cpu time spent up to now is      479.7 secs

     total energy              =   -1518.79197318 Ry
     Harris-Foulkes estimate   =   -1518.80532415 Ry
     estimated scf accuracy    <       0.10001295 Ry

     iteration # 12     ecut=    40.00 Ry     beta=0.70
     CG style diagonalization
     c_bands:  1 eigenvalues not converged
     ethr =  2.66E-05,  avg # of iterations =  3.1

     total cpu time spent up to now is      486.2 secs

     total energy              =   -1518.78247461 Ry
     Harris-Foulkes estimate   =   -1518.79417119 Ry
     estimated scf accuracy    <       0.04578790 Ry

     iteration # 13     ecut=    40.00 Ry     beta=0.70
     CG style diagonalization
     c_bands:  1 eigenvalues not converged
     ethr =  2.66E-05,  avg # of iterations =  3.9

     total cpu time spent up to now is      495.1 secs

     total energy              =   -1518.78995242 Ry
     Harris-Foulkes estimate   =   -1518.79007818 Ry
     estimated scf accuracy    <       0.00055422 Ry

     iteration # 14     ecut=    40.00 Ry     beta=0.70
     CG style diagonalization
     c_bands:  2 eigenvalues not converged
     c_bands:  1 eigenvalues not converged
     c_bands:  3 eigenvalues not converged
     c_bands:  1 eigenvalues not converged
     c_bands:  1 eigenvalues not converged
     c_bands:  1 eigenvalues not converged
     c_bands:  1 eigenvalues not converged
     ethr =  3.22E-07,  avg # of iterations =  5.4

     total cpu time spent up to now is      507.9 secs

     total energy              =   -1518.79062776 Ry
     Harris-Foulkes estimate   =   -1518.79066318 Ry
     estimated scf accuracy    <       0.00019127 Ry

     iteration # 15     ecut=    40.00 Ry     beta=0.70
     CG style diagonalization
     c_bands:  1 eigenvalues not converged
     c_bands:  1 eigenvalues not converged
     c_bands:  1 eigenvalues not converged
     c_bands:  1 eigenvalues not converged
     ethr =  1.11E-07,  avg # of iterations =  4.0

     total cpu time spent up to now is      517.1 secs

     total energy              =   -1518.79061788 Ry
     Harris-Foulkes estimate   =   -1518.79066719 Ry
     estimated scf accuracy    <       0.00020042 Ry

     iteration # 16     ecut=    40.00 Ry     beta=0.70
     CG style diagonalization
     c_bands:  1 eigenvalues not converged
     c_bands:  1 eigenvalues not converged
     ethr =  1.11E-07,  avg # of iterations =  3.4

     total cpu time spent up to now is      524.3 secs

     End of self-consistent calculation

          k = 0.0000 0.0000 0.0000 (  3675 PWs)   bands (ev):

   -59.1867 -59.1749 -59.1163 -59.0840 -32.2703 -32.2700 -32.2698 -32.2696
   -32.2515 -32.2510 -32.2503 -32.2499 -32.2474 -32.2461 -32.2446 -32.2434
   -28.3139 -28.2992 -28.2745 -28.2589 -28.2160 -28.2049 -28.1047 -28.0956
    -9.5341  -9.4605  -9.4371  -9.4286  -9.3741  -9.3594  -9.3255  -9.2957
    -9.2830  -9.2698  -9.2670  -9.2651  -9.2255  -9.1500  -9.1317  -9.1120
    -9.1094  -9.0592  -9.0456  -9.0395  -8.9729  -8.9687  -8.9496  -8.9318
     5.4523   5.4801   5.4803   5.4806   5.5078   5.5170   5.6182   5.6320
     5.6463   5.6585   5.6593   5.7081   5.7213   5.7642   5.7964   5.8167
     5.8875   5.8961   5.9315   5.9380   6.2638   7.6176   7.7295   8.4202
     8.4871   9.0706   9.0892   9.3799   9.3817   9.4751   9.5516   9.7035
     9.8550   9.8887   9.9366   9.9497  10.0382  10.0961  10.1703  10.2701
    10.5142  10.9386  11.1025  11.1190  11.1367  11.1919  11.3080  11.3959
    11.7710  11.8021  11.8734  11.9160  12.0294  12.1469  12.1527

          k = 0.0000 0.0000 0.0856 (  3675 PWs)   bands (ev):

   -59.2042 -59.1536 -59.1265 -59.0768 -32.2702 -32.2701 -32.2699 -32.2698
   -32.2515 -32.2509 -32.2504 -32.2500 -32.2471 -32.2461 -32.2435 -32.2432
   -28.3204 -28.2976 -28.2708 -28.2567 -28.2073 -28.1975 -28.1350 -28.0644
    -9.5336  -9.4665  -9.4492  -9.4163  -9.3738  -9.3575  -9.3546  -9.3107
    -9.3015  -9.2970  -9.2677  -9.2297  -9.2083  -9.1369  -9.1318  -9.1287
    -9.0742  -9.0505  -9.0473  -9.0222  -8.9611  -8.9609  -8.9595  -8.9569
     5.4521   5.4755   5.4791   5.4979   5.5007   5.5093   5.6089   5.6270
     5.6839   5.6985   5.7081   5.7126   5.7181   5.7410   5.7673   5.8322
     5.8482   5.8780   5.9287   5.9551   6.3870   7.1922   7.9532   8.3300
     8.7015   9.1577   9.2273   9.2628   9.4700   9.4948   9.5150   9.6618
     9.8202   9.9114   9.9197   9.9276   9.9401  10.1015  10.1326  10.2882
    10.4448  10.5368  10.6245  11.1506  11.3187  11.4245  11.4392  11.5976
    11.6657  11.7980  11.9131  11.9872  12.0697  12.1130  12.1767

          k = 0.0000 0.0000-0.1713 (  3690 PWs)   bands (ev):

   -59.2186 -59.2186 -59.1312 -59.1312 -32.2702 -32.2702 -32.2699 -32.2699
   -32.2514 -32.2514 -32.2503 -32.2503 -32.2467 -32.2467 -32.2428 -32.2428
   -28.3347 -28.3347 -28.2644 -28.2644 -28.2064 -28.2064 -28.1047 -28.1047
    -9.5288  -9.5288  -9.4306  -9.4306  -9.3744  -9.3744  -9.3306  -9.3306
    -9.3186  -9.3186  -9.2377  -9.2377  -9.1450  -9.1450  -9.1429  -9.1429
    -9.1069  -9.1069  -9.0496  -9.0496  -8.9815  -8.9815  -8.9540  -8.9540
     5.4534   5.4534   5.4714   5.4714   5.4982   5.4982   5.6190   5.6190
     5.6791   5.6791   5.7125   5.7125   5.7446   5.7446   5.7844   5.7844
     5.8478   5.8478   5.9470   5.9470   6.7192   6.7192   8.1472   8.1472
     9.0229   9.0229   9.3384   9.3384   9.4353   9.4353   9.6747   9.6747
     9.8348   9.8348   9.8420   9.8420  10.0858  10.0858  10.0902  10.0902
    10.2899  10.2899  10.7313  10.7314  11.4684  11.4684  11.6017  11.6017
    11.8031  11.8031  11.9176  11.9176  12.1328  12.1328  12.2063

          k = 0.0000 0.1688 0.0000 (  3664 PWs)   bands (ev):

   -59.2204 -59.1560 -59.0445 -59.0325 -32.2702 -32.2700 -32.2695 -32.2695
   -32.2509 -32.2508 -32.2502 -32.2498 -32.2461 -32.2457 -32.2436 -32.2429
   -28.3014 -28.2873 -28.2634 -28.2548 -28.1867 -28.1406 -28.1362 -28.1019
    -9.4369  -9.4144  -9.4084  -9.3676  -9.3627  -9.3424  -9.3282  -9.3167
    -9.3049  -9.2693  -9.2655  -9.2640  -9.1796  -9.1736  -9.1412  -9.1221
    -9.0761  -9.0623  -9.0568  -9.0466  -9.0299  -8.9981  -8.9811  -8.9338
     5.4902   5.5314   5.5360   5.5437   5.5530   5.6444   5.6452   5.6475
     5.6757   5.6930   5.7057   5.7078   5.7450   5.7452   5.7747   5.8408
     5.8618   5.9166   5.9252   5.9470   6.7172   7.7488   7.9398   8.1214
     8.6099   8.9607   9.2235   9.2731   9.4080   9.5640   9.6332   9.6806
     9.6918   9.8130   9.8251  10.0178  10.1811  10.1897  10.2169  10.3213
    10.5150  10.6383  10.8744  10.9229  10.9428  10.9439  11.1548  11.1840
    11.3268  11.5097  11.7848  11.8351  11.9641  11.9847  12.0481

          k = 0.0000 0.1688 0.0856 (  3669 PWs)   bands (ev):

   -59.2071 -59.1545 -59.0979 -59.0474 -32.2701 -32.2699 -32.2697 -32.2694
   -32.2511 -32.2507 -32.2501 -32.2499 -32.2459 -32.2452 -32.2433 -32.2428
   -28.3195 -28.2964 -28.2482 -28.2421 -28.2002 -28.1512 -28.1340 -28.1090
    -9.4698  -9.4213  -9.3984  -9.3890  -9.3561  -9.3362  -9.3324  -9.3246
    -9.3036  -9.3010  -9.2763  -9.2112  -9.1934  -9.1728  -9.1441  -9.1324
    -9.0804  -9.0692  -9.0512  -9.0395  -9.0221  -9.0032  -8.9766  -8.9488
     5.5028   5.5214   5.5359   5.5456   5.5601   5.6068   5.6299   5.6482
     5.6716   5.6876   5.6959   5.7129   5.7349   5.7538   5.7935   5.8471
     5.8708   5.9007   5.9230   5.9521   6.8274   7.5675   7.8811   8.1733
     8.7198   8.9422   9.0999   9.2909   9.4994   9.5682   9.5977   9.6619
     9.7067   9.8078   9.9035   9.9822  10.1253  10.1722  10.1729  10.3208
    10.4548  10.5331  10.7363  10.8950  11.0830  11.1219  11.1846  11.2218
    11.3772  11.5185  11.5380  11.8592  11.9526  11.9681  12.0217

          k = 0.0000 0.1688-0.1713 (  3666 PWs)   bands (ev):

   -59.1468 -59.1468 -59.0916 -59.0916 -32.2700 -32.2700 -32.2698 -32.2698
   -32.2511 -32.2511 -32.2501 -32.2501 -32.2459 -32.2459 -32.2431 -32.2431
   -28.2975 -28.2975 -28.2371 -28.2371 -28.1793 -28.1793 -28.1278 -28.1278
    -9.4376  -9.4376  -9.3970  -9.3970  -9.3529  -9.3529  -9.3054  -9.3054
    -9.2988  -9.2988  -9.2265  -9.2265  -9.1901  -9.1901  -9.1399  -9.1399
    -9.0691  -9.0691  -9.0547  -9.0547  -9.0120  -9.0120  -8.9722  -8.9722
     5.5219   5.5219   5.5450   5.5450   5.5765   5.5765   5.6588   5.6588
     5.6723   5.6723   5.7112   5.7112   5.7411   5.7411   5.8346   5.8346
     5.8660   5.8660   5.9420   5.9420   7.1407   7.1407   8.0632   8.0632
     8.7959   8.7959   9.2646   9.2646   9.4547   9.4547   9.6994   9.6994
     9.7539   9.7539  10.0252  10.0252  10.0623  10.0623  10.1723  10.1723
    10.5032  10.5032  10.6594  10.6594  11.1808  11.1808  11.3380  11.3380
    11.3795  11.3795  11.7151  11.7151  11.9604  11.9609  11.9848

          k =-0.3090 0.0000 0.0000 (  3722 PWs)   bands (ev):

   -59.2718 -59.2718 -59.2429 -59.2429 -32.2702 -32.2702 -32.2701 -32.2701
   -32.2513 -32.2513 -32.2512 -32.2512 -32.2502 -32.2502 -32.2478 -32.2478
   -28.3339 -28.3339 -28.3082 -28.3082 -28.2328 -28.2328 -28.2230 -28.2230
    -9.5511  -9.5511  -9.4591  -9.4591  -9.3990  -9.3990  -9.3889  -9.3889
    -9.3526  -9.3526  -9.2048  -9.2048  -9.1701  -9.1701  -9.1627  -9.1627
    -9.0915  -9.0915  -9.0609  -9.0609  -9.0439  -9.0439  -8.9358  -8.9358
     5.4148   5.4148   5.4502   5.4502   5.5195   5.5195   5.6292   5.6292
     5.6539   5.6539   5.6727   5.6727   5.6873   5.6873   5.7439   5.7439
     5.7965   5.7965   5.8327   5.8327   7.5699   7.5699   7.8962   7.8962
     8.7227   8.7227   9.2435   9.2435   9.3279   9.3279  10.0055  10.0055
    10.0078  10.0078  10.2579  10.2579  10.4372  10.4372  10.5215  10.5215
    10.6014  10.6014  10.8117  10.8117  11.0690  11.0690  11.0914  11.0914
    11.3921  11.3921  11.4474  11.4474  11.7322  11.7322  11.9165

          k =-0.3090 0.0000 0.0856 (  3710 PWs)   bands (ev):

   -59.2310 -59.2310 -59.2227 -59.2227 -32.2702 -32.2702 -32.2700 -32.2700
   -32.2512 -32.2512 -32.2511 -32.2511 -32.2496 -32.2496 -32.2480 -32.2480
   -28.3228 -28.3228 -28.2957 -28.2957 -28.2287 -28.2287 -28.1962 -28.1962
    -9.5400  -9.5400  -9.4562  -9.4562  -9.4094  -9.4094  -9.3485  -9.3485
    -9.3413  -9.3413  -9.2063  -9.2063  -9.1878  -9.1878  -9.1253  -9.1253
    -9.0812  -9.0812  -9.0552  -9.0552  -9.0396  -9.0396  -8.9501  -8.9501
     5.4378   5.4378   5.4622   5.4622   5.5140   5.5140   5.6153   5.6153
     5.6542   5.6542   5.6772   5.6772   5.7113   5.7113   5.7602   5.7602
     5.8203   5.8203   5.8510   5.8510   7.6388   7.6388   7.8843   7.8843
     8.5392   8.5392   9.3311   9.3311   9.4076   9.4076   9.8192   9.8192
    10.0351  10.0351  10.2193  10.2193  10.3692  10.3692  10.5435  10.5435
    10.6306  10.6306  10.8999  10.8999  11.0473  11.0473  11.1505  11.1505
    11.2141  11.2141  11.5053  11.5053  11.8218  11.8218  12.0550

          k =-0.3090 0.0000-0.1713 (  3680 PWs)   bands (ev):

   -59.1807 -59.1807 -59.1259 -59.1259 -32.2700 -32.2700 -32.2698 -32.2698
   -32.2511 -32.2511 -32.2510 -32.2510 -32.2488 -32.2488 -32.2476 -32.2476
   -28.2833 -28.2833 -28.2698 -28.2698 -28.1837 -28.1837 -28.1833 -28.1833
    -9.5441  -9.5441  -9.4056  -9.4056  -9.4042  -9.4042  -9.3436  -9.3436
    -9.2687  -9.2687  -9.2096  -9.2096  -9.1897  -9.1897  -9.0998  -9.0998
    -9.0657  -9.0657  -9.0538  -9.0538  -9.0146  -9.0146  -8.9395  -8.9395
     5.4503   5.4503   5.4791   5.4791   5.5562   5.5562   5.5961   5.5961
     5.6681   5.6681   5.7008   5.7008   5.7554   5.7554   5.7900   5.7900
     5.8495   5.8495   5.8747   5.8747   7.7990   7.7990   7.8112   7.8112
     8.3714   8.3714   9.3833   9.3833   9.5463   9.5463   9.6437   9.6437
    10.0289  10.0289  10.2576  10.2576  10.3268  10.3268  10.5583  10.5583
    10.6654  10.6654  10.8680  10.8680  10.8893  10.8893  10.9846  10.9846
    11.4759  11.4759  11.5750  11.5750  11.8739  11.8739  12.1253

          k =-0.3090 0.1688 0.0000 (  3686 PWs)   bands (ev):

   -59.1860 -59.1860 -59.1608 -59.1608 -32.2697 -32.2697 -32.2696 -32.2696
   -32.2506 -32.2506 -32.2504 -32.2504 -32.2492 -32.2492 -32.2483 -32.2483
   -28.2986 -28.2986 -28.2875 -28.2875 -28.2045 -28.2045 -28.1936 -28.1936
    -9.4506  -9.4506  -9.4077  -9.4077  -9.4039  -9.4039  -9.3175  -9.3175
    -9.3118  -9.3118  -9.2174  -9.2174  -9.1651  -9.1651  -9.1302  -9.1302
    -9.0809  -9.0809  -9.0523  -9.0523  -9.0381  -9.0381  -9.0252  -9.0252
     5.4947   5.4947   5.5486   5.5486   5.5868   5.5868   5.6322   5.6322
     5.6638   5.6638   5.6874   5.6874   5.7491   5.7491   5.7724   5.7724
     5.8261   5.8261   5.8434   5.8434   7.8464   7.8464   8.1050   8.1050
     8.9109   8.9109   9.0148   9.0148   9.5637   9.5637   9.8908   9.8908
     9.9110   9.9110  10.1256  10.1256  10.2744  10.2744  10.4158  10.4158
    10.5523  10.5523  10.6647  10.6647  10.7522  10.7522  10.9510  10.9510
    11.2204  11.2204  11.4304  11.4304  11.5331  11.5331  12.0254

          k =-0.3090 0.1688 0.0856 (  3692 PWs)   bands (ev):

   -59.2333 -59.2333 -59.1402 -59.1402 -32.2697 -32.2697 -32.2695 -32.2695
   -32.2507 -32.2507 -32.2504 -32.2504 -32.2483 -32.2483 -32.2476 -32.2476
   -28.2997 -28.2997 -28.2930 -28.2930 -28.2032 -28.2032 -28.1937 -28.1937
    -9.4520  -9.4520  -9.4185  -9.4185  -9.3938  -9.3938  -9.3529  -9.3529
    -9.2975  -9.2975  -9.2168  -9.2168  -9.1753  -9.1753  -9.1239  -9.1239
    -9.0816  -9.0816  -9.0533  -9.0533  -9.0461  -9.0461  -9.0273  -9.0273
     5.4996   5.4996   5.5534   5.5534   5.5830   5.5830   5.6334   5.6334
     5.6415   5.6415   5.6784   5.6784   5.7396   5.7396   5.7814   5.7814
     5.8428   5.8428   5.8519   5.8519   7.8986   7.8986   8.1118   8.1118
     8.7027   8.7027   9.1387   9.1387   9.5822   9.5822   9.7820   9.7820
     9.9767   9.9767  10.1289  10.1289  10.1752  10.1752  10.3798  10.3798
    10.4750  10.4750  10.6925  10.6925  10.8166  10.8166  11.0029  11.0029
    11.2573  11.2573  11.3442  11.3442  11.7131  11.7131  11.9104

          k =-0.3090 0.1688-0.1713 (  3704 PWs)   bands (ev):

   -59.2736 -59.2736 -59.1591 -59.1591 -32.2698 -32.2698 -32.2696 -32.2696
   -32.2508 -32.2508 -32.2506 -32.2506 -32.2485 -32.2485 -32.2482 -32.2482
   -28.3116 -28.3116 -28.3030 -28.3030 -28.2169 -28.2169 -28.1965 -28.1965
    -9.4656  -9.4656  -9.4251  -9.4251  -9.3960  -9.3960  -9.3463  -9.3463
    -9.3223  -9.3223  -9.2227  -9.2227  -9.1868  -9.1868  -9.1203  -9.1203
    -9.0843  -9.0843  -9.0681  -9.0681  -9.0508  -9.0508  -9.0327  -9.0327
     5.5110   5.5110   5.5655   5.5655   5.5824   5.5824   5.5981   5.5981
     5.6426   5.6426   5.6533   5.6533   5.7464   5.7464   5.7498   5.7498
     5.8451   5.8451   5.8551   5.8551   7.9862   7.9862   8.1007   8.1007
     8.5360   8.5360   9.2034   9.2034   9.5361   9.5361   9.8371   9.8371
     9.9582   9.9582  10.0847  10.0847  10.2322  10.2322  10.2747  10.2747
    10.4189  10.4189  10.6407  10.6407  10.7993  10.7993  11.1439  11.1439
    11.1763  11.1763  11.4313  11.4313  11.7896  11.7896  11.9806

     the Fermi energy is    10.2885 ev

!    total energy              =   -1518.79062410 Ry
     Harris-Foulkes estimate   =   -1518.79063974 Ry
     estimated scf accuracy    <       0.00001715 Ry

     The total energy is the sum of the following terms:

     one-electron contribution =    -544.58306345 Ry
     hartree contribution      =     320.34522350 Ry
     xc contribution           =    -161.89648721 Ry
     ewald contribution        =   -1131.43400860 Ry
     smearing contrib. (-TS)   =      -1.22228832 Ry

     convergence has been achieved in  16 iterations

     Forces acting on atoms (Ry/au):

     atom    1 type  1   force =     0.00000000    0.00101087    0.00049750
     atom    2 type  1   force =     0.00000000   -0.00101087   -0.00049750
     atom    3 type  1   force =     0.00000000    0.00101087   -0.00049750
     atom    4 type  1   force =     0.00000000   -0.00101087    0.00049750
     atom    5 type  1   force =     0.00000000    0.00073863   -0.00311773
     atom    6 type  1   force =     0.00000000   -0.00073863    0.00311773
     atom    7 type  1   force =     0.00000000    0.00073863    0.00311773
     atom    8 type  1   force =     0.00000000   -0.00073863   -0.00311773
     atom    9 type  2   force =     0.00000000    0.00320313   -0.00331495
     atom   10 type  2   force =     0.00000000   -0.00320313    0.00331495
     atom   11 type  2   force =     0.00000000    0.00320313    0.00331495
     atom   12 type  2   force =     0.00000000   -0.00320313   -0.00331495

     Total force =     0.011451     Total SCF correction =     0.000000


     entering subroutine stress ...

          total   stress  (Ry/bohr**3)                   (kbar)     P=-1277.09
  -0.00940981   0.00000000   0.00000000      -1384.23      0.00      0.00
   0.00000000  -0.00814587   0.00000000          0.00  -1198.30      0.00
   0.00000000   0.00000000  -0.00848874          0.00      0.00  -1248.74


     number of scf cycles    =   3
     number of bfgs steps    =   2

     enthalpy old            =   -1527.9451405079 Ry
     enthalpy new            =   -1518.7906240979 Ry

     CASE: enthalpy_new > enthalpy_old

     new trust radius        =       1.3761110080 bohr

     trust_radius < trust_radius_min

     resetting bfgs history

     Message from routine bfgs:
     history already reset at previous step: stopping
     new conv_thr            =       0.0001000000 Ry

     new unit-cell volume =   1264.95187 a.u.^3 (   187.44652 Ang^3 )

CELL_PARAMETERS (alat=  7.01510508)
   1.156413115   0.000000000   0.000000000
   0.000000000   1.474769072   0.000000000
   0.000000000   0.000000000   2.148495400

ATOMIC_POSITIONS (crystal)
Co       0.750000000   0.825517234   0.435250192
Co       0.250000000   0.174482766   0.564749808
Co       0.750000000   0.325517234   0.064749808
Co       0.250000000   0.674482766   0.935250192
Co       0.250000000   0.538772012   0.279819653
Co       0.750000000   0.461227988   0.720180347
Co       0.250000000   0.038772012   0.220180347
Co       0.750000000   0.961227988   0.779819653
Si       0.250000000   0.200527029   0.893542033
Si       0.750000000   0.799472971   0.106457967
Si       0.250000000   0.700527029   0.606457967
Si       0.750000000   0.299472971   0.393542033



     Writing output data file Prototype-La-oP12-Co2Si.save
     NEW-OLD atomic charge density approx. for the potential
     NEW k-points:
        k(    1) = (   0.0000000   0.0000000   0.0000000), wk =   0.0833333
        k(    2) = (   0.0000000   0.0000000   0.1163605), wk =   0.1666667
        k(    3) = (   0.0000000   0.0000000  -0.2327210), wk =   0.0833333
        k(    4) = (   0.0000000   0.2260241   0.0000000), wk =   0.1666667
        k(    5) = (   0.0000000   0.2260241   0.1163605), wk =   0.3333333
        k(    6) = (   0.0000000   0.2260241  -0.2327210), wk =   0.1666667
        k(    7) = (  -0.4323714   0.0000000   0.0000000), wk =   0.0833333
        k(    8) = (  -0.4323714   0.0000000   0.1163605), wk =   0.1666667
        k(    9) = (  -0.4323714   0.0000000  -0.2327210), wk =   0.0833333
        k(   10) = (  -0.4323714   0.2260241   0.0000000), wk =   0.1666667
        k(   11) = (  -0.4323714   0.2260241   0.1163605), wk =   0.3333333
        k(   12) = (  -0.4323714   0.2260241  -0.2327210), wk =   0.1666667

     total cpu time spent up to now is      529.4 secs

     Self-consistent Calculation

     iteration #  1     ecut=    40.00 Ry     beta=0.70
     CG style diagonalization
     c_bands:  1 eigenvalues not converged
     c_bands:  1 eigenvalues not converged
     c_bands:  1 eigenvalues not converged
     c_bands:  2 eigenvalues not converged
     c_bands:  3 eigenvalues not converged
     c_bands:  1 eigenvalues not converged
     c_bands:  1 eigenvalues not converged
     c_bands:  2 eigenvalues not converged
     ethr =  1.00E-06,  avg # of iterations = 36.0

     total cpu time spent up to now is      610.5 secs

     total energy              =   -1431.20383819 Ry
     Harris-Foulkes estimate   =   -1680.18212043 Ry
     estimated scf accuracy    <     310.36120075 Ry

     iteration #  2     ecut=    40.00 Ry     beta=0.70
     CG style diagonalization
     ethr =  1.00E-02,  avg # of iterations =  8.8

     total cpu time spent up to now is      630.6 secs

     total energy              =   -1489.34525061 Ry
     Harris-Foulkes estimate   =   -1578.19968221 Ry
     estimated scf accuracy    <     141.25438171 Ry

     iteration #  3     ecut=    40.00 Ry     beta=0.70
     CG style diagonalization
     c_bands:  1 eigenvalues not converged
     ethr =  1.00E-02,  avg # of iterations =  6.1

     total cpu time spent up to now is      645.0 secs

     total energy              =   -1524.10725502 Ry
     Harris-Foulkes estimate   =   -1534.84826342 Ry
     estimated scf accuracy    <      19.88994636 Ry

     iteration #  4     ecut=    40.00 Ry     beta=0.70
     CG style diagonalization
     ethr =  1.00E-02,  avg # of iterations =  3.9

     total cpu time spent up to now is      653.6 secs

     total energy              =   -1528.88228407 Ry
     Harris-Foulkes estimate   =   -1531.05236667 Ry
     estimated scf accuracy    <       4.54139101 Ry

     iteration #  5     ecut=    40.00 Ry     beta=0.70
     CG style diagonalization
     ethr =  2.64E-03,  avg # of iterations =  3.7

     total cpu time spent up to now is      661.9 secs

     total energy              =   -1529.99660948 Ry
     Harris-Foulkes estimate   =   -1530.27324631 Ry
     estimated scf accuracy    <       0.50005089 Ry

     iteration #  6     ecut=    40.00 Ry     beta=0.70
     CG style diagonalization
     c_bands:  1 eigenvalues not converged
     ethr =  2.91E-04,  avg # of iterations =  4.2

     total cpu time spent up to now is      671.5 secs

     total energy              =   -1530.13966007 Ry
     Harris-Foulkes estimate   =   -1530.18477085 Ry
     estimated scf accuracy    <       0.08229869 Ry

     iteration #  7     ecut=    40.00 Ry     beta=0.70
     CG style diagonalization
     c_bands:  1 eigenvalues not converged
     c_bands:  1 eigenvalues not converged
     c_bands:  1 eigenvalues not converged
     ethr =  4.78E-05,  avg # of iterations =  4.0

     total cpu time spent up to now is      679.8 secs

     total energy              =   -1530.16082661 Ry
     Harris-Foulkes estimate   =   -1530.16320164 Ry
     estimated scf accuracy    <       0.00497354 Ry

     iteration #  8     ecut=    40.00 Ry     beta=0.70
     CG style diagonalization
     c_bands:  1 eigenvalues not converged
     c_bands:  1 eigenvalues not converged
     c_bands:  1 eigenvalues not converged
     c_bands:  1 eigenvalues not converged
     c_bands:  1 eigenvalues not converged
     ethr =  2.89E-06,  avg # of iterations =  4.9

     total cpu time spent up to now is      690.6 secs

     total energy              =   -1530.16276507 Ry
     Harris-Foulkes estimate   =   -1530.16318712 Ry
     estimated scf accuracy    <       0.00079950 Ry

     iteration #  9     ecut=    40.00 Ry     beta=0.70
     CG style diagonalization
     ethr =  4.65E-07,  avg # of iterations =  3.9

     total cpu time spent up to now is      699.0 secs

     End of self-consistent calculation

          k = 0.0000 0.0000 0.0000 (  3675 PWs)   bands (ev):

   -45.9709 -45.9605 -45.9557 -45.9369 -14.4993 -14.4743 -14.4688 -14.4534
   -14.4357 -14.4307 -14.3988 -14.3477 -14.3356 -14.3054 -14.2678 -14.2192
    -8.0910  -7.3569  -7.1590  -6.9183  -6.7663  -6.4380  -6.3924  -6.3662
     7.6772   8.3082   8.5368   8.8509   9.0428   9.1482   9.6908   9.7025
    10.1173  10.1808  10.2011  10.6306  10.8064  10.9718  11.2201  11.3730
    11.5967  11.6935  11.7400  12.2360  12.3815  12.6719  13.2798  13.5390
    20.6814  20.7871  21.2377  21.2721  21.4854  21.5832  21.6225  21.7153
    22.0698  22.2606  22.4749  22.5037  22.6142  23.0874  23.4142  23.4638
    23.4809  23.5082  23.9066  23.9120  24.8239  25.0711  27.1736  27.1978
    27.3754  27.3853  28.5857  28.6727  29.2100  29.3368  29.3404  29.3433
    29.8047  29.8848  30.5769  30.6578  30.7521  30.8700  31.1439  31.4498
    32.2957  32.5853  32.8045  33.2868  33.3162  33.3634  34.0039  34.7097
    35.0797  35.1122  35.3008  35.5703  35.6184  35.7490  36.2188

          k = 0.0000 0.0000 0.1164 (  3675 PWs)   bands (ev):

   -45.9767 -45.9564 -45.9544 -45.9341 -14.4842 -14.4776 -14.4745 -14.4655
   -14.4207 -14.4081 -14.3898 -14.3741 -14.3313 -14.3285 -14.2527 -14.2321
    -8.0195  -7.5638  -6.9804  -6.9031  -6.7615  -6.5008  -6.3909  -6.3720
     7.7392   8.1791   8.6701   8.8709   9.0523   9.2009   9.4336   9.9056
    10.0146  10.3499  10.4028  10.6029  10.8000  11.0106  11.0728  11.2078
    11.4287  11.9231  11.9388  12.0344  12.3454  12.4722  13.3074  13.4937
    20.6772  20.8292  21.1277  21.2581  21.4531  21.5369  21.7429  21.9069
    22.1249  22.2599  22.5113  22.6327  22.7674  23.1028  23.2414  23.3495
    23.4734  23.5619  23.7522  23.7911  25.1539  25.5029  26.7540  27.2011
    27.4678  27.9342  28.7314  28.7658  29.1782  29.2239  29.3469  29.4637
    29.5332  29.8463  30.4629  30.6924  30.7236  30.9502  31.2254  31.3171
    31.4434  31.7853  32.2961  32.9605  33.7957  33.9839  34.0524  34.2219
    34.2584  34.2601  35.3471  35.5752  35.7641  36.3859  36.6554

          k = 0.0000 0.0000-0.2327 (  3690 PWs)   bands (ev):

   -45.9741 -45.9741 -45.9525 -45.9525 -14.4938 -14.4938 -14.4865 -14.4865
   -14.4094 -14.4094 -14.3759 -14.3759 -14.3458 -14.3458 -14.2550 -14.2550
    -7.8262  -7.8262  -6.8818  -6.8818  -6.6573  -6.6573  -6.3840  -6.3840
     7.9192   7.9192   8.9349   8.9349   9.0369   9.0369   9.5995   9.5995
    10.3178  10.3178  10.5539  10.5539  10.8086  10.8086  11.2302  11.2302
    11.5059  11.5059  12.1381  12.1381  12.2042  12.2042  13.3898  13.3898
    20.8374  20.8374  20.9269  20.9269  21.5586  21.5586  21.9708  21.9708
    22.5159  22.5159  22.6136  22.6136  22.9946  22.9946  23.0337  23.0337
    23.5017  23.5017  23.5882  23.5882  25.8430  25.8430  26.5754  26.5754
    28.1821  28.1821  28.9157  28.9157  29.2262  29.2262  29.3549  29.3549
    29.9910  29.9910  30.1443  30.1443  30.4324  30.4324  30.9322  30.9322
    31.4275  31.4275  32.3924  32.3923  33.5992  33.5992  34.2080  34.2080
    34.3013  34.3013  35.2635  35.2636  36.1928  36.1929  37.0195

          k = 0.0000 0.2260 0.0000 (  3664 PWs)   bands (ev):

   -45.9759 -45.9709 -45.9310 -45.9089 -14.5185 -14.5151 -14.4404 -14.4403
   -14.4329 -14.4121 -14.3877 -14.3538 -14.3259 -14.3089 -14.2363 -14.2253
    -7.8287  -7.3013  -7.1473  -6.9758  -6.8163  -6.6430  -6.3795  -6.3488
     8.2293   8.8875   8.9260   8.9663   9.0991   9.1210   9.2457   9.4534
     9.7681   9.9787  10.1368  10.3900  10.5768  11.2875  11.3719  11.6522
    11.7352  11.7815  11.8645  11.9581  12.1388  12.1847  12.4662  12.5854
    21.1046  21.1615  21.3469  21.6189  21.8482  22.0353  22.1052  22.3510
    22.3655  22.3924  22.5213  22.7051  22.7759  23.0652  23.2590  23.6343
    23.6627  23.7325  23.7567  23.8340  25.0558  26.3170  27.3341  27.3821
    27.4456  27.9208  27.9812  28.1397  28.8901  28.9311  29.1059  29.4274
    29.7331  29.7520  29.8285  30.8935  30.9558  31.1736  31.5576  31.7323
    31.8831  31.9700  32.2532  32.8380  32.8958  33.1232  33.1909  33.6839
    34.2876  34.3613  35.0536  35.0671  35.4737  35.5768  36.1454

          k = 0.0000 0.2260 0.1164 (  3669 PWs)   bands (ev):

   -45.9699 -45.9628 -45.9431 -45.9265 -14.5280 -14.5144 -14.4612 -14.4359
   -14.4202 -14.4118 -14.3760 -14.3625 -14.3320 -14.3139 -14.2503 -14.2301
    -7.7657  -7.3871  -7.1821  -6.9602  -6.7701  -6.5744  -6.4304  -6.3765
     8.2988   8.7210   8.9093   9.0577   9.0861   9.1160   9.3736   9.6370
     9.7892  10.0732  10.1149  10.2701  10.6260  11.2732  11.3127  11.5085
    11.5328  11.6046  11.8778  12.0718  12.1080  12.2666  12.4428  12.5931
[...]
     CG style diagonalization
     c_bands:  4 eigenvalues not converged
     c_bands:  2 eigenvalues not converged
     c_bands:  3 eigenvalues not converged
     c_bands:  5 eigenvalues not converged
     ethr =  1.00E-02,  avg # of iterations = 16.6

     total cpu time spent up to now is      920.3 secs

     total energy              =   -1353.17745354 Ry
     Harris-Foulkes estimate   =   -2252.65193410 Ry
     estimated scf accuracy    <    1692.05721736 Ry

     iteration #  3     ecut=    40.00 Ry     beta=0.70
     CG style diagonalization
     ethr =  1.00E-02,  avg # of iterations = 12.2

     total cpu time spent up to now is      964.7 secs

     total energy              =   -1515.51195392 Ry
     Harris-Foulkes estimate   =   -1578.88291925 Ry
     estimated scf accuracy    <     140.98202637 Ry

     iteration #  4     ecut=    40.00 Ry     beta=0.70
     CG style diagonalization
     ethr =  1.00E-02,  avg # of iterations =  5.2

     total cpu time spent up to now is      982.5 secs

     total energy              =   -1529.70521701 Ry
     Harris-Foulkes estimate   =   -1538.94641968 Ry
     estimated scf accuracy    <      22.17427197 Ry

     iteration #  5     ecut=    40.00 Ry     beta=0.70
     CG style diagonalization
     ethr =  1.00E-02,  avg # of iterations =  3.5

     total cpu time spent up to now is      994.5 secs

     total energy              =   -1531.46654858 Ry
     Harris-Foulkes estimate   =   -1532.83857285 Ry
     estimated scf accuracy    <       3.00849863 Ry

     iteration #  6     ecut=    40.00 Ry     beta=0.70
     CG style diagonalization
     ethr =  1.75E-03,  avg # of iterations =  4.2

     total cpu time spent up to now is     1009.2 secs

     total energy              =   -1531.97703481 Ry
     Harris-Foulkes estimate   =   -1532.33139800 Ry
     estimated scf accuracy    <       0.62048569 Ry

     iteration #  7     ecut=    40.00 Ry     beta=0.70
     CG style diagonalization
     c_bands:  1 eigenvalues not converged
     ethr =  3.61E-04,  avg # of iterations =  4.4

     total cpu time spent up to now is     1026.4 secs

     total energy              =   -1532.20532757 Ry
     Harris-Foulkes estimate   =   -1532.27886017 Ry
     estimated scf accuracy    <       0.18569222 Ry

     iteration #  8     ecut=    40.00 Ry     beta=0.70
     CG style diagonalization
     ethr =  1.08E-04,  avg # of iterations =  3.8

     total cpu time spent up to now is     1039.7 secs

     total energy              =   -1532.21795530 Ry
     Harris-Foulkes estimate   =   -1532.24165434 Ry
     estimated scf accuracy    <       0.05775854 Ry

     iteration #  9     ecut=    40.00 Ry     beta=0.70
     CG style diagonalization
     c_bands:  1 eigenvalues not converged
     ethr =  3.36E-05,  avg # of iterations =  3.7

     total cpu time spent up to now is     1052.2 secs

     total energy              =   -1532.22262306 Ry
     Harris-Foulkes estimate   =   -1532.22719265 Ry
     estimated scf accuracy    <       0.00688606 Ry

     iteration # 10     ecut=    40.00 Ry     beta=0.70
     CG style diagonalization
     c_bands:  1 eigenvalues not converged
     ethr =  4.00E-06,  avg # of iterations =  5.0

     total cpu time spent up to now is     1069.9 secs

     total energy              =   -1532.22661632 Ry
     Harris-Foulkes estimate   =   -1532.22867766 Ry
     estimated scf accuracy    <       0.00369206 Ry

     iteration # 11     ecut=    40.00 Ry     beta=0.70
     CG style diagonalization
     ethr =  2.15E-06,  avg # of iterations =  3.6

     total cpu time spent up to now is     1082.3 secs

     End of self-consistent calculation

          k = 0.0000 0.0000 0.0000 (  5419 PWs)   bands (ev):

   -46.3168 -46.3107 -46.3039 -46.3018 -14.9726 -14.9544 -14.9407 -14.9366
   -14.9322 -14.9298 -14.9205 -14.8800 -14.8060 -14.7636 -14.7313 -14.7286
    -8.0612  -7.3366  -7.1291  -6.8769  -6.7274  -6.4020  -6.3638  -6.3348
     7.6265   8.2509   8.4851   8.7868   8.9945   9.0936   9.6334   9.6535
    10.0530  10.1254  10.1481  10.5662  10.7360  10.9115  11.1495  11.2958
    11.5188  11.6368  11.6815  12.1721  12.2935  12.5955  13.2144  13.4584
    20.7083  20.8043  21.2573  21.2985  21.5082  21.6113  21.6567  21.7395
    22.1091  22.2963  22.5136  22.5304  22.6490  23.1196  23.4551  23.5017
    23.5036  23.5450  23.9558  23.9665  24.7732  24.9861  27.0708  27.1322
    27.2873  27.3267  28.5166  28.6137  29.1756  29.2531  29.3126  29.3167
    29.7533  29.8334  30.5315  30.5909  30.7003  30.8153  31.1097  31.3943
    32.2188  32.5276  32.7315  33.2095  33.2452  33.2779  33.8593  34.6139
    34.9735  35.0437  35.2346  35.5093  35.5287  35.6742  36.0467

          k = 0.0000 0.0000 0.1164 (  5424 PWs)   bands (ev):

   -46.3170 -46.3093 -46.3081 -46.3020 -14.9613 -14.9464 -14.9441 -14.9437
   -14.9398 -14.9311 -14.9209 -14.8896 -14.7978 -14.7731 -14.7420 -14.7249
    -7.9911  -7.5415  -6.9501  -6.8630  -6.7228  -6.4652  -6.3619  -6.3408
     7.6866   8.1202   8.6226   8.8070   8.9976   9.1519   9.3809   9.8556
     9.9580  10.2990  10.3432  10.5324  10.7304  10.9391  11.0101  11.1450
    11.3662  11.8349  11.8691  11.9712  12.2531  12.3981  13.2415  13.4190
    20.7059  20.8463  21.1437  21.2863  21.4809  21.5615  21.7707  21.9384
    22.1567  22.2850  22.5479  22.6658  22.8031  23.1389  23.2751  23.3884
    23.5108  23.5998  23.7956  23.8409  25.0971  25.4145  26.6828  27.1068
    27.4072  27.8481  28.6628  28.7155  29.1502  29.1819  29.2978  29.4146
    29.5058  29.8085  30.3970  30.6304  30.6963  30.8799  31.1600  31.2464
    31.3688  31.7303  32.2246  32.8628  33.7301  33.9053  33.9594  34.1501
    34.1637  34.1797  35.2498  35.4644  35.6798  36.2251  36.5927

          k = 0.0000 0.0000-0.2327 (  5402 PWs)   bands (ev):

   -46.3118 -46.3118 -46.3022 -46.3022 -14.9488 -14.9488 -14.9357 -14.9357
   -14.9337 -14.9337 -14.8992 -14.8992 -14.7772 -14.7771 -14.7366 -14.7366
    -7.8003  -7.8003  -6.8443  -6.8443  -6.6214  -6.6214  -6.3532  -6.3532
     7.8680   7.8680   8.8758   8.8758   8.9853   8.9853   9.5479   9.5479
    10.2554  10.2554  10.5027  10.5027  10.7372  10.7372  11.1703  11.1703
    11.4411  11.4411  12.0796  12.0796  12.1114  12.1114  13.3240  13.3240
    20.8667  20.8667  20.9424  20.9424  21.5855  21.5855  22.0022  22.0022
    22.5478  22.5478  22.6417  22.6417  23.0324  23.0324  23.0648  23.0648
    23.5462  23.5462  23.6296  23.6296  25.7795  25.7795  26.4878  26.4878
    28.1229  28.1229  28.8859  28.8859  29.1536  29.1536  29.3071  29.3071
    29.9591  29.9591  30.0969  30.0969  30.3402  30.3402  30.8787  30.8787
    31.3845  31.3845  32.2985  32.2985  33.5384  33.5386  34.1184  34.1185
    34.2311  34.2312  35.1373  35.1375  36.0913  36.0916  36.9285

          k = 0.0000 0.2260 0.0000 (  5405 PWs)   bands (ev):

   -46.3148 -46.3096 -46.3087 -46.2976 -14.9871 -14.9869 -14.9450 -14.9219
   -14.9177 -14.9157 -14.9112 -14.8936 -14.7796 -14.7771 -14.7344 -14.7298
    -7.8008  -7.2734  -7.1266  -6.9450  -6.7799  -6.6142  -6.3419  -6.3122
     8.1742   8.8329   8.8762   8.9143   9.0440   9.0697   9.1954   9.3975
     9.7112   9.9327  10.0748  10.3300  10.5156  11.2098  11.3004  11.5681
    11.6494  11.7143  11.8021  11.8890  12.0433  12.1155  12.3932  12.5175
    21.1349  21.1815  21.3768  21.6472  21.8699  22.0682  22.1277  22.3781
    22.3995  22.4298  22.5508  22.7349  22.8092  23.1093  23.2903  23.6726
    23.7066  23.7733  23.8058  23.8801  24.9788  26.2200  27.2476  27.3078
    27.3345  27.8905  27.9316  28.0515  28.8513  28.8689  29.0380  29.3517
    29.6748  29.7016  29.7887  30.8655  30.8953  31.1091  31.5157  31.6732
    31.8144  31.9140  32.1902  32.7192  32.8107  33.0346  33.0766  33.5786
    34.1888  34.2926  34.9588  34.9669  35.3824  35.4773  36.0106

          k = 0.0000 0.2260 0.1164 (  5385 PWs)   bands (ev):

   -46.3124 -46.3084 -46.3042 -46.2978 -14.9757 -14.9720 -14.9372 -14.9261
   -14.9152 -14.9124 -14.9058 -14.9000 -14.7803 -14.7736 -14.7272 -14.7240
    -7.7390  -7.3635  -7.1531  -6.9307  -6.7342  -6.5424  -6.3926  -6.3399
     8.2492   8.6711   8.8561   9.0060   9.0356   9.0660   9.3195   9.5760
     9.7354  10.0092  10.0624  10.2162  10.5745  11.2046  11.2282  11.4250
    11.4684  11.5416  11.7926  12.0030  12.0156  12.1991  12.3723  12.5227
    21.1691  21.1999  21.5060  21.5669  21.9496  22.0889  22.1204  22.3575
    22.3898  22.4300  22.5482  22.7649  22.9344  23.1453  23.3306  23.5327
    23.5697  23.7747  23.8175  23.8667  25.3694  26.4156  27.2309  27.5712
    27.6294  27.6580  28.0701  28.2986  28.4905  28.7035  29.0044  29.4116
    29.4521  29.5500  29.7825  30.5365  30.6893  30.9539  31.1619  31.7174
    31.8868  31.9016  32.1287  32.5011  32.9144  33.2339  33.3509  33.7216
    33.9074  34.1782  34.5064  34.6822  35.0948  35.6850  35.9553

          k = 0.0000 0.2260-0.2327 (  5410 PWs)   bands (ev):

   -46.3114 -46.3114 -46.3055 -46.3055 -14.9784 -14.9784 -14.9359 -14.9359
   -14.9272 -14.9272 -14.9120 -14.9120 -14.7778 -14.7778 -14.7280 -14.7280
    -7.5734  -7.5734  -7.0563  -7.0563  -6.5571  -6.5571  -6.4145  -6.4145
     8.4320   8.4320   8.9315   8.9315   9.0896   9.0896   9.5689   9.5689
     9.8238   9.8238  10.2230  10.2230  10.8198  10.8198  11.2940  11.2940
    11.2957  11.2957  11.9309  11.9309  12.1523  12.1523  12.4482  12.4482
    21.2838  21.2838  21.3795  21.3795  22.1591  22.1591  22.2387  22.2387
    22.4309  22.4309  22.7680  22.7680  23.0050  23.0050  23.4078  23.4078
    23.6356  23.6356  23.7910  23.7910  26.2245  26.2245  27.0979  27.0979
    28.1995  28.1995  28.2243  28.2243  28.5570  28.5570  28.7178  28.7178
    29.8229  29.8229  30.1273  30.1273  30.3893  30.3893  31.2239  31.2239
    32.0987  32.0988  32.1357  32.1357  32.9100  32.9100  33.0909  33.0909
    33.9046  33.9046  35.1643  35.1645  35.4131  35.4135  36.0106

          k =-0.4324 0.0000 0.0000 (  5452 PWs)   bands (ev):

   -46.3138 -46.3138 -46.3121 -46.3121 -15.0035 -15.0035 -14.9874 -14.9874
   -14.9346 -14.9346 -14.9250 -14.9250 -14.7622 -14.7622 -14.7520 -14.7520
    -7.3883  -7.3883  -6.9723  -6.9723  -6.8366  -6.8366  -6.3561  -6.3561
     7.8256   7.8256   8.5748   8.5748   8.8538   8.8538   9.5546   9.5546
     9.5857   9.5857  10.8114  10.8114  11.0435  11.0435  11.3705  11.3705
    11.7953  11.7953  12.2316  12.2316  12.5027  12.5027  13.2065  13.2065
    21.1007  21.1007  21.7613  21.7613  22.0155  22.0155  22.0192  22.0192
    22.0686  22.0686  22.0688  22.0688  22.5973  22.5973  23.1762  23.1762
    23.4143  23.4143  23.4273  23.4273  25.0679  25.0679  26.6127  26.6127
    27.7420  27.7420  28.5405  28.5405  28.6862  28.6862  29.8126  29.8126
    30.7087  30.7088  31.2797  31.2797  31.4710  31.4710  32.0061  32.0061
    32.0074  32.0074  32.6799  32.6799  32.7643  32.7643  32.8011  32.8011
    33.6248  33.6249  35.0229  35.0239  35.3428  35.3439  35.7083

          k =-0.4324 0.0000 0.1164 (  5406 PWs)   bands (ev):

   -46.3101 -46.3101 -46.3062 -46.3062 -15.0011 -15.0011 -14.9706 -14.9706
   -14.9234 -14.9234 -14.9173 -14.9173 -14.7531 -14.7531 -14.7379 -14.7379
    -7.3710  -7.3710  -6.9850  -6.9850  -6.8361  -6.8361  -6.3616  -6.3616
     7.8111   7.8111   8.5146   8.5146   9.1155   9.1155   9.3850   9.3850
     9.9041   9.9041  10.6181  10.6181  10.7763  10.7763  11.2651  11.2651
    11.9865  11.9865  12.2437  12.2437  12.4850  12.4850  13.2008  13.2008
    21.1657  21.1657  21.6160  21.6160  21.8578  21.8578  22.0191  22.0191
    22.2059  22.2059  22.4290  22.4290  22.6711  22.6711  23.0505  23.0505
    23.1328  23.1328  23.5644  23.5644  25.2418  25.2418  26.9588  26.9588
    27.8813  27.8813  28.4953  28.4953  29.0201  29.0201  29.8543  29.8543
    30.0052  30.0052  30.6529  30.6530  31.0717  31.0717  31.1451  31.1451
    31.8550  31.8550  32.2202  32.2202  32.7613  32.7613  34.1063  34.1063
    34.4659  34.4660  34.8924  34.8930  35.4688  35.4694  35.8200

          k =-0.4324 0.0000-0.2327 (  5412 PWs)   bands (ev):

   -46.3122 -46.3122 -46.3052 -46.3052 -15.0168 -15.0168 -14.9647 -14.9647
   -14.9229 -14.9229 -14.9088 -14.9088 -14.7565 -14.7565 -14.7407 -14.7407
    -7.3526  -7.3526  -7.0015  -7.0015  -6.8347  -6.8347  -6.3676  -6.3676
     7.7918   7.7918   8.5190   8.5190   9.1746   9.1746   9.7168   9.7168
     9.8737   9.8737  10.4406  10.4406  10.5974  10.5974  11.0774  11.0774
    12.1687  12.1687  12.2823  12.2823  12.4110  12.4110  13.1939  13.1939
    21.2403  21.2403  21.4470  21.4470  21.9009  21.9009  22.0094  22.0094
    22.4462  22.4462  22.6029  22.6029  22.6596  22.6596  22.9243  22.9243
    22.9769  22.9769  23.5808  23.5808  25.4324  25.4324  27.3401  27.3401
    28.0378  28.0378  28.8721  28.8721  29.3041  29.3041  29.4788  29.4788
    29.5807  29.5807  29.8846  29.8846  30.1604  30.1604  31.2544  31.2544
    31.5822  31.5822  32.0891  32.0891  33.4446  33.4447  33.4945  33.4946
    35.3295  35.3295  35.5263  35.5272  35.5330  35.5332  35.8840

          k =-0.4324 0.2260 0.0000 (  5384 PWs)   bands (ev):

   -46.3061 -46.3061 -46.3051 -46.3051 -14.9836 -14.9836 -14.9835 -14.9835
   -14.9246 -14.9246 -14.9152 -14.9152 -14.7428 -14.7428 -14.7362 -14.7362
    -7.2198  -7.2198  -6.9914  -6.9914  -6.7671  -6.7671  -6.5498  -6.5498
     8.2406   8.2406   8.4201   8.4201   8.8551   8.8551   9.8853   9.8853
     9.9179   9.9179  10.4204  10.4204  10.8613  10.8613  10.9920  10.9920
    11.9403  11.9403  11.9814  11.9814  12.4102  12.4102  12.5721  12.5721
    21.3837  21.3837  21.8700  21.8700  22.0875  22.0875  22.2116  22.2116
    22.4002  22.4002  22.5215  22.5215  23.0550  23.0550  23.1871  23.1871
    23.4757  23.4757  23.5015  23.5015  25.8718  25.8718  26.5958  26.5958
    28.2889  28.2889  28.4516  28.4516  29.1296  29.1296  29.6888  29.6888
    30.0867  30.0867  30.4716  30.4716  30.7560  30.7560  31.5510  31.5510
    31.6928  31.6928  32.2930  32.2930  32.8105  32.8105  33.2258  33.2258
    33.6231  33.6232  34.1413  34.1414  34.5088  34.5091  36.0966

          k =-0.4324 0.2260 0.1164 (  5394 PWs)   bands (ev):

   -46.3076 -46.3076 -46.3061 -46.3061 -14.9984 -14.9984 -14.9794 -14.9794
   -14.9236 -14.9236 -14.9167 -14.9167 -14.7452 -14.7452 -14.7375 -14.7375
    -7.2028  -7.2028  -6.9894  -6.9894  -6.7777  -6.7777  -6.5618  -6.5618
     8.2829   8.2829   8.5417   8.5417   8.9746   8.9746   9.4266   9.4266
     9.8793   9.8793  10.4881  10.4881  10.9226  10.9226  11.2501  11.2501
    11.8414  11.8414  12.0506  12.0506  12.2445  12.2445  12.5323  12.5323
    21.3951  21.3951  21.7990  21.7990  22.0259  22.0259  22.2145  22.2145
    22.5584  22.5584  22.6111  22.6111  23.0688  23.0688  23.2036  23.2036
    23.4147  23.4147  23.5566  23.5566  26.0513  26.0513  26.9206  26.9206
    28.3067  28.3067  28.6392  28.6392  29.0702  29.0702  29.2696  29.2696
    29.9033  29.9033  30.0491  30.0491  30.6621  30.6622  31.1055  31.1055
    31.9001  31.9001  32.1970  32.1970  32.7623  32.7623  33.3461  33.3463
    33.6166  33.6168  34.2847  34.2847  34.9120  34.9133  35.3930

          k =-0.4324 0.2260-0.2327 (  5432 PWs)   bands (ev):

   -46.3109 -46.3109 -46.3108 -46.3108 -15.0110 -15.0110 -14.9843 -14.9843
   -14.9312 -14.9312 -14.9270 -14.9270 -14.7553 -14.7553 -14.7424 -14.7424
    -7.1842  -7.1842  -6.9900  -6.9900  -6.7872  -6.7872  -6.5752  -6.5752
     8.3148   8.3148   8.7970   8.7970   9.0222   9.0222   9.3279   9.3279
     9.4231   9.4231  10.5820  10.5820  11.0961  11.0961  11.4442  11.4442
    11.8320  11.8320  11.8423  11.8423  12.2569  12.2569  12.4312  12.4312
    21.4137  21.4137  21.6863  21.6863  22.0440  22.0440  22.2116  22.2116
    22.5855  22.5855  22.7914  22.7914  23.1162  23.1162  23.1462  23.1462
    23.4419  23.4419  23.5761  23.5761  26.2948  26.2948  27.3562  27.3562
    28.4091  28.4092  28.6007  28.6007  28.6334  28.6334  29.1339  29.1339
    29.2737  29.2737  30.2929  30.2929  30.5444  30.5444  31.2510  31.2510
    31.4734  31.4734  32.2195  32.2195  32.4887  32.4886  33.5542  33.5543
    33.6201  33.6202  34.0550  34.0551  34.8153  34.8153  36.0035

     the Fermi energy is    31.0648 ev

!    total energy              =   -1532.22743796 Ry
     Harris-Foulkes estimate   =   -1532.22744891 Ry
     estimated scf accuracy    <       0.00001476 Ry

     The total energy is the sum of the following terms:

     one-electron contribution =      26.85936468 Ry
     hartree contribution      =     160.93136886 Ry
     xc contribution           =    -176.17202972 Ry
     ewald contribution        =   -1543.31381959 Ry
     smearing contrib. (-TS)   =      -0.53232219 Ry

     convergence has been achieved in  11 iterations

     Forces acting on atoms (Ry/au):

     atom    1 type  1   force =     0.00000000   -0.04186729   -0.00146217
     atom    2 type  1   force =     0.00000000    0.04186729    0.00146217
     atom    3 type  1   force =     0.00000000   -0.04186729    0.00146217
     atom    4 type  1   force =     0.00000000    0.04186729   -0.00146217
     atom    5 type  1   force =     0.00000000    0.03987678   -0.10212497
     atom    6 type  1   force =     0.00000000   -0.03987678    0.10212497
     atom    7 type  1   force =     0.00000000    0.03987678    0.10212497
     atom    8 type  1   force =     0.00000000   -0.03987678   -0.10212497
     atom    9 type  2   force =     0.00000000   -0.08723296    0.01719865
     atom   10 type  2   force =     0.00000000    0.08723296   -0.01719865
     atom   11 type  2   force =     0.00000000   -0.08723296   -0.01719865
     atom   12 type  2   force =     0.00000000    0.08723296    0.01719865

     Total force =     0.294483     Total SCF correction =     0.000000


     entering subroutine stress ...

          total   stress  (Ry/bohr**3)                   (kbar)     P= 1445.70
   0.01081055   0.00000000   0.00000000       1590.29      0.00      0.00
   0.00000000   0.00912840   0.00000000          0.00   1342.83      0.00
   0.00000000   0.00000000   0.00954396          0.00      0.00   1403.96


     Writing output data file Prototype-La-oP12-Co2Si.save
 
     init_run     :      3.60s CPU      4.61s WALL (       2 calls)
     electrons    :    935.71s CPU   1061.15s WALL (       5 calls)
     update_pot   :      1.94s CPU      1.96s WALL (       3 calls)
     forces       :      3.98s CPU      4.19s WALL (       5 calls)
     stress       :     11.99s CPU     12.24s WALL (       5 calls)

     Called by init_run:
     wfcinit      :      2.69s CPU      3.68s WALL (       2 calls)
     potinit      :      0.44s CPU      0.44s WALL (       2 calls)

     Called by electrons:
     c_bands      :    916.58s CPU   1029.19s WALL (      55 calls)
     sum_band     :     18.68s CPU     25.10s WALL (      55 calls)
     v_of_rho     :      0.09s CPU      0.10s WALL (      60 calls)
     mix_rho      :      0.10s CPU      0.12s WALL (      55 calls)

     Called by c_bands:
     init_us_2    :      1.62s CPU      1.90s WALL (    1464 calls)
     ccgdiagg     :    848.04s CPU    942.62s WALL (     766 calls)
     wfcrot       :     69.72s CPU     87.02s WALL (     778 calls)

     Called by *cgdiagg:
     h_psi        :    608.67s CPU    711.76s WALL (  420965 calls)
     cdiaghg      :      3.65s CPU      3.92s WALL (     778 calls)

     Called by h_psi:
     add_vuspsi   :    129.22s CPU    139.60s WALL (  420965 calls)

     General routines
     calbec       :    290.84s CPU    309.71s WALL (  841272 calls)
     fft          :      0.17s CPU      0.19s WALL (     263 calls)
     fftw         :    299.82s CPU    354.85s WALL ( 1068622 calls)
     davcio       :      0.81s CPU      2.92s WALL (    2124 calls)
 
     Parallel routines
     fft_scatter  :    120.01s CPU    145.97s WALL ( 1068885 calls)
 
     PWSCF        : 15m57.60s CPU    18m 7.00s WALL

 
   This run was terminated on:   0:57:40  22Mar2018            

=------------------------------------------------------------------------------=
   JOB DONE.
=------------------------------------------------------------------------------=
