
     Program PWSCF v.5.0.2 starts on 22Mar2018 at 16:21:49 

     This program is part of the open-source Quantum ESPRESSO suite
     for quantum simulation of materials; please cite
         "P. Giannozzi et al., J. Phys.:Condens. Matter 21 395502 (2009);
          URL http://www.quantum-espresso.org", 
     in publications or presentations arising from this work. More details at
     http://www.quantum-espresso.org/quote.php

     Parallel version (MPI), running on     4 processors
     R & G space division:  proc/nbgrp/npool/nimage =       4

     Current dimensions of program PWSCF are:
     Max number of different atomic species (ntypx) = 10
     Max number of k-points (npk) =  40000
     Max angular momentum in pseudopotentials (lmaxx) =  3
     Waiting for input...
     Reading input from standard input

     Subspace diagonalization in iterative solution of the eigenvalue problem:
     a serial algorithm will be used

 
     Parallelization info
     --------------------
     sticks:   dense  smooth     PW     G-vecs:    dense   smooth      PW
     Min         164     164     48                 3132     3132     524
     Max         165     165     49                 3135     3135     527
     Sum         657     657    193                12533    12533    2103
 


     bravais-lattice index     =            0
     lattice parameter (alat)  =       7.1317  a.u.
     unit-cell volume          =     362.7211 (a.u.)^3
     number of atoms/cell      =            4
     number of atomic types    =            2
     number of electrons       =        62.00
     number of Kohn-Sham states=           37
     kinetic-energy cutoff     =      40.0000  Ry
     charge density cutoff     =     160.0000  Ry
     convergence threshold     =      1.0E-04
     mixing beta               =       0.7000
     number of iterations used =            8  plain     mixing
     Exchange-correlation      = SLA-PZ-NOGX-NOGC ( 1 1 0 0 0)
     EXX-fraction              =        0.00
     nstep                     =           50


     celldm(1)=   7.131665  celldm(2)=   0.000000  celldm(3)=   0.000000
     celldm(4)=   0.000000  celldm(5)=   0.000000  celldm(6)=   0.000000

     crystal axes: (cart. coord. in units of alat)
               a(1) = (   1.000000   0.000000   0.000000 )  
               a(2) = (   0.000000   1.000000   0.000000 )  
               a(3) = (   0.000000   0.000000   1.000000 )  

     reciprocal axes: (cart. coord. in units 2 pi/alat)
               b(1) = (  1.000000  0.000000  0.000000 )  
               b(2) = (  0.000000  1.000000  0.000000 )  
               b(3) = (  0.000000  0.000000  1.000000 )  


     PseudoPot. # 1 for Pr read from file:
     /home/cwx6513/pp.La/Pr.UPF
     MD5 check sum: 70e2b4b153859e92c8c91247dfc63203
     Pseudo is Norm-conserving, Zval = 13.0
     Generated in analytical, separable form
     Using radial grid of 1255 points,  6 beta functions with: 
                l(1) =   0
                l(2) =   0
                l(3) =   1
                l(4) =   1
                l(5) =   2
                l(6) =   3

     PseudoPot. # 2 for Tm read from file:
     /home/cwx6513/pp.La/Tm.UPF
     MD5 check sum: 245516e0878b5372ceeb9443ded2c4e1
     Pseudo is Norm-conserving, Zval = 23.0
     Generated in analytical, separable form
     Using radial grid of 1269 points,  6 beta functions with: 
                l(1) =   0
                l(2) =   0
                l(3) =   1
                l(4) =   1
                l(5) =   2
                l(6) =   3

     atomic species   valence    mass     pseudopotential
        Cu            13.00    63.54600     Pr( 1.00)
        Au            23.00   196.96600     Tm( 1.00)

     48 Sym. Ops., with inversion, found



   Cartesian axes

     site n.     atom                  positions (alat units)
         1           Cu  tau(   1) = (   0.0000000   0.5000000   0.5000000  )
         2           Cu  tau(   2) = (   0.5000000   0.5000000   0.0000000  )
         3           Cu  tau(   3) = (   0.5000000   0.0000000   0.5000000  )
         4           Au  tau(   4) = (   0.0000000   0.0000000   0.0000000  )

     number of k points=   100  gaussian smearing, width (Ry)=  0.1000

     Number of k-points >= 100: set verbosity='high' to print them.

     Dense  grid:    12533 G-vectors     FFT dimensions: (  30,  30,  30)

     Largest allocated arrays     est. size (Mb)     dimensions
        Kohn-Sham Wavefunctions         0.23 Mb     (    400,   37)
        NL pseudopotentials             0.49 Mb     (    400,   80)
        Each V/rho on FFT grid          0.11 Mb     (   7200)
        Each G-vector array             0.02 Mb     (   3134)
        G-vector shells                 0.02 Mb     (   3134)
     Largest temporary arrays     est. size (Mb)     dimensions
        Each subspace H/S matrix        0.02 Mb     (  37,  37)
        Each <psi_i|beta_j> matrix      0.05 Mb     (     80,   37)
        Arrays for rho mixing           0.88 Mb     (   7200,   8)

     Initial potential from superposition of free atoms

     starting charge   38.97163, renormalised to   62.00000
     Starting wfc are   60 randomized atomic wfcs

     total cpu time spent up to now is        2.3 secs

     Self-consistent Calculation

     iteration #  1     ecut=    40.00 Ry     beta=0.70
     CG style diagonalization
     c_bands:  5 eigenvalues not converged
     ethr =  1.00E-02,  avg # of iterations = 20.1

     total cpu time spent up to now is       29.8 secs

     total energy              =     185.27586818 Ry
     Harris-Foulkes estimate   =   -1231.55613859 Ry
     estimated scf accuracy    <    1662.04712735 Ry

     iteration #  2     ecut=    40.00 Ry     beta=0.70
     CG style diagonalization
     c_bands:  5 eigenvalues not converged
     c_bands:  5 eigenvalues not converged
     c_bands:  5 eigenvalues not converged
     c_bands:  4 eigenvalues not converged
     c_bands:  4 eigenvalues not converged
     c_bands:  5 eigenvalues not converged
     c_bands:  5 eigenvalues not converged
     c_bands:  4 eigenvalues not converged
     c_bands:  5 eigenvalues not converged
     c_bands:  4 eigenvalues not converged
     c_bands:  5 eigenvalues not converged
     c_bands:  3 eigenvalues not converged
     c_bands:  1 eigenvalues not converged
     c_bands:  4 eigenvalues not converged
     c_bands:  2 eigenvalues not converged
     c_bands:  5 eigenvalues not converged
     c_bands:  5 eigenvalues not converged
     c_bands:  2 eigenvalues not converged
     c_bands:  5 eigenvalues not converged
     c_bands:  5 eigenvalues not converged
     c_bands:  5 eigenvalues not converged
     c_bands:  3 eigenvalues not converged
     c_bands:  5 eigenvalues not converged
     c_bands:  5 eigenvalues not converged
     c_bands:  4 eigenvalues not converged
     c_bands:  5 eigenvalues not converged
     c_bands:  5 eigenvalues not converged
     c_bands:  5 eigenvalues not converged
     c_bands:  4 eigenvalues not converged
     c_bands:  5 eigenvalues not converged
     c_bands:  4 eigenvalues not converged
     c_bands:  4 eigenvalues not converged
     ethr =  1.00E-02,  avg # of iterations = 19.2

     total cpu time spent up to now is       54.1 secs

     total energy              =    -623.60487578 Ry
     Harris-Foulkes estimate   =   -1206.28092249 Ry
     estimated scf accuracy    <     949.40446948 Ry

     iteration #  3     ecut=    40.00 Ry     beta=0.70
     CG style diagonalization
     c_bands:  1 eigenvalues not converged
     c_bands:  1 eigenvalues not converged
     c_bands:  1 eigenvalues not converged
     ethr =  1.00E-02,  avg # of iterations = 10.0

     total cpu time spent up to now is       67.2 secs

     total energy              =    -647.90114657 Ry
     Harris-Foulkes estimate   =    -681.53257840 Ry
     estimated scf accuracy    <     112.99559918 Ry

     iteration #  4     ecut=    40.00 Ry     beta=0.70
     CG style diagonalization
     ethr =  1.00E-02,  avg # of iterations =  4.9

     total cpu time spent up to now is       73.4 secs

     total energy              =    -643.68329743 Ry
     Harris-Foulkes estimate   =    -652.86825819 Ry
     estimated scf accuracy    <      27.33052412 Ry

     iteration #  5     ecut=    40.00 Ry     beta=0.70
     CG style diagonalization
     ethr =  1.00E-02,  avg # of iterations =  3.7

     total cpu time spent up to now is       78.2 secs

     total energy              =    -642.62648926 Ry
     Harris-Foulkes estimate   =    -645.95329096 Ry
     estimated scf accuracy    <       5.74496200 Ry

     iteration #  6     ecut=    40.00 Ry     beta=0.70
     CG style diagonalization
     ethr =  9.27E-03,  avg # of iterations =  3.7

     total cpu time spent up to now is       83.0 secs

     total energy              =    -644.17437198 Ry
     Harris-Foulkes estimate   =    -644.26092625 Ry
     estimated scf accuracy    <       0.28973906 Ry

     iteration #  7     ecut=    40.00 Ry     beta=0.70
     CG style diagonalization
     c_bands:  3 eigenvalues not converged
     c_bands:  1 eigenvalues not converged
     c_bands:  1 eigenvalues not converged
     c_bands:  1 eigenvalues not converged
     c_bands:  1 eigenvalues not converged
     c_bands:  1 eigenvalues not converged
     c_bands:  1 eigenvalues not converged
     c_bands:  1 eigenvalues not converged
     c_bands:  1 eigenvalues not converged
     c_bands:  1 eigenvalues not converged
     c_bands:  1 eigenvalues not converged
     c_bands:  1 eigenvalues not converged
     c_bands:  1 eigenvalues not converged
     c_bands:  1 eigenvalues not converged
     c_bands:  1 eigenvalues not converged
     c_bands:  1 eigenvalues not converged
     c_bands:  1 eigenvalues not converged
     c_bands:  1 eigenvalues not converged
     c_bands:  1 eigenvalues not converged
     c_bands:  1 eigenvalues not converged
     c_bands:  2 eigenvalues not converged
     c_bands:  1 eigenvalues not converged
     c_bands:  1 eigenvalues not converged
     ethr =  4.67E-04,  avg # of iterations =  5.3

     total cpu time spent up to now is       90.0 secs

     total energy              =    -644.15438851 Ry
     Harris-Foulkes estimate   =    -644.30957107 Ry
     estimated scf accuracy    <       0.18471168 Ry

     iteration #  8     ecut=    40.00 Ry     beta=0.70
     CG style diagonalization
     ethr =  2.98E-04,  avg # of iterations =  4.0

     total cpu time spent up to now is       96.0 secs

     total energy              =    -644.21857343 Ry
     Harris-Foulkes estimate   =    -644.26983084 Ry
     estimated scf accuracy    <       0.09470448 Ry

     iteration #  9     ecut=    40.00 Ry     beta=0.70
     CG style diagonalization
     ethr =  1.53E-04,  avg # of iterations =  3.4

     total cpu time spent up to now is      100.5 secs

     total energy              =    -644.22750975 Ry
     Harris-Foulkes estimate   =    -644.23224466 Ry
     estimated scf accuracy    <       0.00758320 Ry

     iteration # 10     ecut=    40.00 Ry     beta=0.70
     CG style diagonalization
     c_bands:  1 eigenvalues not converged
     c_bands:  1 eigenvalues not converged
     c_bands:  2 eigenvalues not converged
     c_bands:  1 eigenvalues not converged
     c_bands:  1 eigenvalues not converged
     c_bands:  1 eigenvalues not converged
     c_bands:  1 eigenvalues not converged
     c_bands:  1 eigenvalues not converged
     c_bands:  2 eigenvalues not converged
     c_bands:  1 eigenvalues not converged
     c_bands:  1 eigenvalues not converged
     c_bands:  1 eigenvalues not converged
     c_bands:  1 eigenvalues not converged
     c_bands:  1 eigenvalues not converged
     ethr =  1.22E-05,  avg # of iterations =  4.5

     total cpu time spent up to now is      107.0 secs

     total energy              =    -644.22983572 Ry
     Harris-Foulkes estimate   =    -644.23035846 Ry
     estimated scf accuracy    <       0.00109385 Ry

     iteration # 11     ecut=    40.00 Ry     beta=0.70
     CG style diagonalization
     c_bands:  1 eigenvalues not converged
     c_bands:  1 eigenvalues not converged
     c_bands:  1 eigenvalues not converged
     c_bands:  1 eigenvalues not converged
     ethr =  1.76E-06,  avg # of iterations =  3.8

     total cpu time spent up to now is      112.0 secs

     End of self-consistent calculation

     Number of k-points >= 100: set verbosity='high' to print the bands.

     the Fermi energy is    38.4309 ev

!    total energy              =    -644.22995567 Ry
     Harris-Foulkes estimate   =    -644.23003173 Ry
     estimated scf accuracy    <       0.00009298 Ry

     The total energy is the sum of the following terms:

     one-electron contribution =      -9.28389698 Ry
     hartree contribution      =      75.02894766 Ry
     xc contribution           =     -68.30246446 Ry
     ewald contribution        =    -641.52771323 Ry
     smearing contrib. (-TS)   =      -0.14482865 Ry

     convergence has been achieved in  11 iterations

     Forces acting on atoms (Ry/au):

     atom    1 type  1   force =     0.00000000    0.00000000    0.00000000
     atom    2 type  1   force =     0.00000000    0.00000000    0.00000000
     atom    3 type  1   force =     0.00000000    0.00000000    0.00000000
     atom    4 type  2   force =     0.00000000    0.00000000    0.00000000

     Total force =     0.000000     Total SCF correction =     0.000000


     entering subroutine stress ...

          total   stress  (Ry/bohr**3)                   (kbar)     P= 2735.95
   0.01859862   0.00000000   0.00000000       2735.95      0.00      0.00
   0.00000000   0.01859862   0.00000000          0.00   2735.95      0.00
   0.00000000   0.00000000   0.01859862          0.00      0.00   2735.95


     BFGS Geometry Optimization

     number of scf cycles    =   1
     number of bfgs steps    =   0

     enthalpy new            =    -644.2299556702 Ry

     new trust radius        =       0.5000000000 bohr
     new conv_thr            =       0.0001000000 Ry

     new unit-cell volume =    525.13076 a.u.^3 (    77.81635 Ang^3 )

CELL_PARAMETERS (alat=  7.13166486)
   1.131266415   0.000000000   0.000000000
   0.000000000   1.131266415   0.000000000
   0.000000000   0.000000000   1.131266415

ATOMIC_POSITIONS (crystal)
Cu       0.000000000   0.500000000   0.500000000
Cu       0.500000000   0.500000000   0.000000000
Cu       0.500000000   0.000000000   0.500000000
Au       0.000000000   0.000000000   0.000000000



     Writing output data file Prototype-La-cP4-Cu3Au.save
     NEW-OLD atomic charge density approx. for the potential
     NEW k-points: (use verbosity='high' to print them)
     Check: negative starting charge=   -0.006483

     negative rho (up, down):  0.651E-02 0.000E+00
     extrapolated charge   74.05294, renormalised to   62.00000

     total cpu time spent up to now is      114.0 secs

     Self-consistent Calculation

     iteration #  1     ecut=    40.00 Ry     beta=0.70
     CG style diagonalization
     c_bands:  3 eigenvalues not converged
     c_bands:  5 eigenvalues not converged
     c_bands:  5 eigenvalues not converged
     c_bands:  4 eigenvalues not converged
     c_bands:  1 eigenvalues not converged
     c_bands:  1 eigenvalues not converged
     c_bands:  4 eigenvalues not converged
     c_bands:  1 eigenvalues not converged
     c_bands:  1 eigenvalues not converged
     c_bands:  2 eigenvalues not converged
     c_bands:  1 eigenvalues not converged
     c_bands:  1 eigenvalues not converged
     c_bands:  1 eigenvalues not converged
     c_bands:  1 eigenvalues not converged
     c_bands:  1 eigenvalues not converged
     c_bands:  1 eigenvalues not converged
     c_bands:  2 eigenvalues not converged
     c_bands:  1 eigenvalues not converged
     c_bands:  2 eigenvalues not converged
     c_bands:  5 eigenvalues not converged
     c_bands:  1 eigenvalues not converged
     c_bands:  1 eigenvalues not converged
     c_bands:  4 eigenvalues not converged
     c_bands:  2 eigenvalues not converged
     c_bands:  2 eigenvalues not converged
     c_bands:  1 eigenvalues not converged
     c_bands:  1 eigenvalues not converged
     c_bands:  1 eigenvalues not converged
     c_bands:  1 eigenvalues not converged
     c_bands:  1 eigenvalues not converged
     c_bands:  1 eigenvalues not converged
     c_bands:  1 eigenvalues not converged
     c_bands:  1 eigenvalues not converged
     c_bands:  1 eigenvalues not converged
     c_bands:  5 eigenvalues not converged
     c_bands:  1 eigenvalues not converged
     c_bands:  2 eigenvalues not converged
     c_bands:  1 eigenvalues not converged
     ethr =  1.00E-06,  avg # of iterations = 23.3

     negative rho (up, down):  0.163E-02 0.000E+00

     total cpu time spent up to now is      144.3 secs

     total energy              =    -567.08024288 Ry
     Harris-Foulkes estimate   =    -658.41449067 Ry
     estimated scf accuracy    <     134.43885159 Ry

     iteration #  2     ecut=    40.00 Ry     beta=0.70
     CG style diagonalization
     c_bands:  2 eigenvalues not converged
     c_bands:  1 eigenvalues not converged
     c_bands:  1 eigenvalues not converged
     c_bands:  1 eigenvalues not converged
     c_bands:  1 eigenvalues not converged
     c_bands:  1 eigenvalues not converged
     c_bands:  1 eigenvalues not converged
     c_bands:  1 eigenvalues not converged
     c_bands:  1 eigenvalues not converged
     c_bands:  1 eigenvalues not converged
     c_bands:  1 eigenvalues not converged
     c_bands:  1 eigenvalues not converged
     ethr =  1.00E-02,  avg # of iterations =  9.4

     negative rho (up, down):  0.117E-02 0.000E+00

     total cpu time spent up to now is      156.4 secs

     total energy              =    -582.28561252 Ry
     Harris-Foulkes estimate   =    -733.32892275 Ry
     estimated scf accuracy    <     337.25242549 Ry

     iteration #  3     ecut=    40.00 Ry     beta=0.70
     CG style diagonalization
     c_bands:  1 eigenvalues not converged
     ethr =  1.00E-02,  avg # of iterations =  8.7

     negative rho (up, down):  0.580E-03 0.000E+00

     total cpu time spent up to now is      167.7 secs

     total energy              =    -644.97571078 Ry
     Harris-Foulkes estimate   =    -645.32857136 Ry
     estimated scf accuracy    <       0.76408135 Ry

     iteration #  4     ecut=    40.00 Ry     beta=0.70
     CG style diagonalization
     c_bands:  1 eigenvalues not converged
     c_bands:  1 eigenvalues not converged
     c_bands:  1 eigenvalues not converged
     c_bands:  1 eigenvalues not converged
     c_bands:  1 eigenvalues not converged
     c_bands:  2 eigenvalues not converged
     c_bands:  1 eigenvalues not converged
     c_bands:  1 eigenvalues not converged
     c_bands:  2 eigenvalues not converged
     c_bands:  1 eigenvalues not converged
     c_bands:  1 eigenvalues not converged
     ethr =  1.23E-03,  avg # of iterations =  4.5

     negative rho (up, down):  0.130E-04 0.000E+00

     total cpu time spent up to now is      173.4 secs

     total energy              =    -645.17880463 Ry
     Harris-Foulkes estimate   =    -645.22552165 Ry
     estimated scf accuracy    <       0.08614364 Ry

     iteration #  5     ecut=    40.00 Ry     beta=0.70
     CG style diagonalization
     c_bands:  1 eigenvalues not converged
     c_bands:  1 eigenvalues not converged
     c_bands:  1 eigenvalues not converged
     c_bands:  1 eigenvalues not converged
     c_bands:  1 eigenvalues not converged
     c_bands:  1 eigenvalues not converged
     c_bands:  1 eigenvalues not converged
     c_bands:  1 eigenvalues not converged
     c_bands:  1 eigenvalues not converged
     ethr =  1.39E-04,  avg # of iterations =  4.4

     negative rho (up, down):  0.658E-04 0.000E+00

     total cpu time spent up to now is      179.3 secs

     total energy              =    -645.21100964 Ry
     Harris-Foulkes estimate   =    -645.21802056 Ry
     estimated scf accuracy    <       0.00967634 Ry

     iteration #  6     ecut=    40.00 Ry     beta=0.70
     CG style diagonalization
     c_bands:  1 eigenvalues not converged
     c_bands:  1 eigenvalues not converged
     c_bands:  1 eigenvalues not converged
     c_bands:  1 eigenvalues not converged
     c_bands:  1 eigenvalues not converged
     c_bands:  1 eigenvalues not converged
     c_bands:  1 eigenvalues not converged
     c_bands:  1 eigenvalues not converged
     c_bands:  2 eigenvalues not converged
     c_bands:  1 eigenvalues not converged
     c_bands:  1 eigenvalues not converged
     c_bands:  1 eigenvalues not converged
     c_bands:  1 eigenvalues not converged
     ethr =  1.56E-05,  avg # of iterations =  4.4

     total cpu time spent up to now is      185.7 secs

     total energy              =    -645.21424045 Ry
     Harris-Foulkes estimate   =    -645.21491159 Ry
     estimated scf accuracy    <       0.00133101 Ry

     iteration #  7     ecut=    40.00 Ry     beta=0.70
     CG style diagonalization
     c_bands:  1 eigenvalues not converged
     c_bands:  1 eigenvalues not converged
     c_bands:  1 eigenvalues not converged
     c_bands:  1 eigenvalues not converged
     c_bands:  1 eigenvalues not converged
     ethr =  2.15E-06,  avg # of iterations =  4.0

     total cpu time spent up to now is      190.8 secs

     End of self-consistent calculation

     Number of k-points >= 100: set verbosity='high' to print the bands.

     the Fermi energy is    25.9459 ev

!    total energy              =    -645.21455361 Ry
     Harris-Foulkes estimate   =    -645.21456347 Ry
     estimated scf accuracy    <       0.00001476 Ry

     The total energy is the sum of the following terms:

     one-electron contribution =    -110.93783340 Ry
     hartree contribution      =      98.39237216 Ry
     xc contribution           =     -65.39646716 Ry
     ewald contribution        =    -567.08809423 Ry
     smearing contrib. (-TS)   =      -0.18453098 Ry

     convergence has been achieved in   7 iterations

     Forces acting on atoms (Ry/au):

     atom    1 type  1   force =     0.00000000    0.00000000    0.00000000
     atom    2 type  1   force =     0.00000000    0.00000000    0.00000000
     atom    3 type  1   force =     0.00000000    0.00000000    0.00000000
     atom    4 type  2   force =     0.00000000    0.00000000    0.00000000

     Total force =     0.000000     Total SCF correction =     0.000000


     entering subroutine stress ...

          total   stress  (Ry/bohr**3)                   (kbar)     P= -297.10
  -0.00201961   0.00000000   0.00000000       -297.10      0.00      0.00
   0.00000000  -0.00201961   0.00000000          0.00   -297.10      0.00
   0.00000000   0.00000000  -0.00201961          0.00      0.00   -297.10


     number of scf cycles    =   2
     number of bfgs steps    =   1

     enthalpy old            =    -644.2299556702 Ry
     enthalpy new            =    -645.2145536129 Ry

     CASE: enthalpy_new < enthalpy_old

     small trust_radius: resetting bfgs history

     new trust radius        =       0.2314046920 bohr
     new conv_thr            =       0.0000010000 Ry

     new unit-cell volume =    449.53716 a.u.^3 (    66.61453 Ang^3 )

CELL_PARAMETERS (alat=  7.13166486)
   1.074148370   0.000000000   0.000000000
   0.000000000   1.074148370   0.000000000
   0.000000000   0.000000000   1.074148370

ATOMIC_POSITIONS (crystal)
Cu       0.000000000   0.500000000   0.500000000
Cu       0.500000000   0.500000000   0.000000000
Cu       0.500000000   0.000000000   0.500000000
Au       0.000000000   0.000000000   0.000000000



     Writing output data file Prototype-La-cP4-Cu3Au.save
     Check: negative starting charge=   -0.006483
     NEW-OLD atomic charge density approx. for the potential
     NEW k-points: (use verbosity='high' to print them)
     Check: negative starting charge=   -0.002983

     negative rho (up, down):  0.326E+00 0.000E+00
     extrapolated charge   55.44658, renormalised to   62.00000

     total cpu time spent up to now is      192.9 secs

     Self-consistent Calculation

     iteration #  1     ecut=    40.00 Ry     beta=0.70
     CG style diagonalization
     c_bands:  5 eigenvalues not converged
     c_bands:  4 eigenvalues not converged
     c_bands:  1 eigenvalues not converged
     c_bands:  5 eigenvalues not converged
     c_bands:  5 eigenvalues not converged
     c_bands:  1 eigenvalues not converged
     c_bands:  4 eigenvalues not converged
     c_bands:  1 eigenvalues not converged
     c_bands:  5 eigenvalues not converged
     c_bands:  1 eigenvalues not converged
     c_bands:  2 eigenvalues not converged
     c_bands:  3 eigenvalues not converged
     c_bands:  2 eigenvalues not converged
     c_bands:  1 eigenvalues not converged
     c_bands:  1 eigenvalues not converged
     c_bands:  1 eigenvalues not converged
     c_bands:  1 eigenvalues not converged
     c_bands:  5 eigenvalues not converged
     ethr =  1.00E-06,  avg # of iterations = 20.0

     negative rho (up, down):  0.770E-02 0.000E+00

     total cpu time spent up to now is      218.7 secs

     total energy              =    -637.12312089 Ry
     Harris-Foulkes estimate   =    -665.35207833 Ry
     estimated scf accuracy    <      24.26447517 Ry

     iteration #  2     ecut=    40.00 Ry     beta=0.70
     CG style diagonalization
     ethr =  1.00E-02,  avg # of iterations =  5.5

     total cpu time spent up to now is      225.8 secs

     total energy              =    -640.56078253 Ry
     Harris-Foulkes estimate   =    -648.86095402 Ry
     estimated scf accuracy    <      13.80224608 Ry

     iteration #  3     ecut=    40.00 Ry     beta=0.70
     CG style diagonalization
     ethr =  1.00E-02,  avg # of iterations =  4.5

     total cpu time spent up to now is      231.7 secs

     total energy              =    -644.97173667 Ry
     Harris-Foulkes estimate   =    -645.38464911 Ry
     estimated scf accuracy    <       0.92874442 Ry

     iteration #  4     ecut=    40.00 Ry     beta=0.70
     CG style diagonalization
     ethr =  1.50E-03,  avg # of iterations =  3.6

     total cpu time spent up to now is      236.4 secs

     total energy              =    -645.10525047 Ry
     Harris-Foulkes estimate   =    -645.15435299 Ry
     estimated scf accuracy    <       0.08212776 Ry

     iteration #  5     ecut=    40.00 Ry     beta=0.70
     CG style diagonalization
     c_bands:  1 eigenvalues not converged
     c_bands:  1 eigenvalues not converged
     c_bands:  1 eigenvalues not converged
     c_bands:  1 eigenvalues not converged
     c_bands:  1 eigenvalues not converged
     ethr =  1.32E-04,  avg # of iterations =  4.4

     total cpu time spent up to now is      242.3 secs

     total energy              =    -645.14429144 Ry
     Harris-Foulkes estimate   =    -645.14969205 Ry
     estimated scf accuracy    <       0.00914982 Ry

     iteration #  6     ecut=    40.00 Ry     beta=0.70
     CG style diagonalization
     c_bands:  1 eigenvalues not converged
     c_bands:  1 eigenvalues not converged
     c_bands:  1 eigenvalues not converged
     c_bands:  1 eigenvalues not converged
     c_bands:  1 eigenvalues not converged
     c_bands:  1 eigenvalues not converged
     c_bands:  1 eigenvalues not converged
     ethr =  1.48E-05,  avg # of iterations =  4.1

     total cpu time spent up to now is      247.5 secs

     total energy              =    -645.14709447 Ry
     Harris-Foulkes estimate   =    -645.14711698 Ry
     estimated scf accuracy    <       0.00008575 Ry

     iteration #  7     ecut=    40.00 Ry     beta=0.70
     CG style diagonalization
     c_bands:  1 eigenvalues not converged
     c_bands:  1 eigenvalues not converged
     c_bands:  1 eigenvalues not converged
     c_bands:  1 eigenvalues not converged
     ethr =  1.38E-07,  avg # of iterations =  5.5

     total cpu time spent up to now is      254.5 secs

     total energy              =    -645.14723590 Ry
     Harris-Foulkes estimate   =    -645.14724788 Ry
     estimated scf accuracy    <       0.00002606 Ry

     iteration #  8     ecut=    40.00 Ry     beta=0.70
     CG style diagonalization
     ethr =  4.20E-08,  avg # of iterations =  3.4

     total cpu time spent up to now is      258.8 secs

     total energy              =    -645.14723871 Ry
     Harris-Foulkes estimate   =    -645.14723979 Ry
     estimated scf accuracy    <       0.00000299 Ry

     iteration #  9     ecut=    40.00 Ry     beta=0.70
     CG style diagonalization
     ethr =  4.83E-09,  avg # of iterations =  3.8

     total cpu time spent up to now is      263.7 secs

     End of self-consistent calculation

     Number of k-points >= 100: set verbosity='high' to print the bands.

     the Fermi energy is    30.6803 ev

!    total energy              =    -645.14723887 Ry
     Harris-Foulkes estimate   =    -645.14723937 Ry
     estimated scf accuracy    <       0.00000054 Ry

     The total energy is the sum of the following terms:

     one-electron contribution =     -69.47548283 Ry
     hartree contribution      =      88.23750928 Ry
     xc contribution           =     -66.50472813 Ry
     ewald contribution        =    -597.24311031 Ry
     smearing contrib. (-TS)   =      -0.16142688 Ry

     convergence has been achieved in   9 iterations

     Forces acting on atoms (Ry/au):

     atom    1 type  1   force =     0.00000000    0.00000000    0.00000000
     atom    2 type  1   force =     0.00000000    0.00000000    0.00000000
     atom    3 type  1   force =     0.00000000    0.00000000    0.00000000
     atom    4 type  2   force =     0.00000000    0.00000000    0.00000000

     Total force =     0.000000     Total SCF correction =     0.000000


     entering subroutine stress ...

          total   stress  (Ry/bohr**3)                   (kbar)     P=  644.20
   0.00437918   0.00000000   0.00000000        644.20      0.00      0.00
   0.00000000   0.00437918   0.00000000          0.00    644.20      0.00
   0.00000000   0.00000000   0.00437918          0.00      0.00    644.20


     number of scf cycles    =   3
     number of bfgs steps    =   2

     enthalpy old            =    -645.2145536129 Ry
     enthalpy new            =    -645.1472388716 Ry

     CASE: enthalpy_new > enthalpy_old

     new trust radius        =       0.0794511941 bohr

     trust_radius < trust_radius_min

     resetting bfgs history

     Message from routine bfgs:
     history already reset at previous step: stopping
     new conv_thr            =       0.0000010000 Ry

     new unit-cell volume =    445.73460 a.u.^3 (    66.05105 Ang^3 )

CELL_PARAMETERS (alat=  7.13166486)
   1.071111107   0.000000000   0.000000000
   0.000000000   1.071111107   0.000000000
   0.000000000   0.000000000   1.071111107

ATOMIC_POSITIONS (crystal)
Cu       0.000000000   0.500000000   0.500000000
Cu       0.500000000   0.500000000   0.000000000
Cu       0.500000000   0.000000000   0.500000000
Au       0.000000000   0.000000000   0.000000000



     Writing output data file Prototype-La-cP4-Cu3Au.save
     Check: negative starting charge=   -0.002983
     NEW-OLD atomic charge density approx. for the potential
     NEW k-points: (use verbosity='high' to print them)
     Check: negative starting charge=   -0.002824
     extrapolated charge   61.66753, renormalised to   62.00000

     total cpu time spent up to now is      265.7 secs

     Self-consistent Calculation

     iteration #  1     ecut=    40.00 Ry     beta=0.70
     CG style diagonalization
     c_bands:  1 eigenvalues not converged
     c_bands:  1 eigenvalues not converged
     ethr =  1.00E-06,  avg # of iterations =  6.0

     total cpu time spent up to now is      273.6 secs

     total energy              =    -645.11217182 Ry
     Harris-Foulkes estimate   =    -645.62732405 Ry
     estimated scf accuracy    <       0.05143162 Ry

     iteration #  2     ecut=    40.00 Ry     beta=0.70
     CG style diagonalization
     ethr =  8.30E-05,  avg # of iterations =  3.8

     total cpu time spent up to now is      278.8 secs

     total energy              =    -645.12319629 Ry
     Harris-Foulkes estimate   =    -645.13736860 Ry
     estimated scf accuracy    <       0.02287980 Ry

     iteration #  3     ecut=    40.00 Ry     beta=0.70
     CG style diagonalization
     ethr =  3.69E-05,  avg # of iterations =  3.6

     total cpu time spent up to now is      283.5 secs

     total energy              =    -645.12952607 Ry
     Harris-Foulkes estimate   =    -645.12987837 Ry
     estimated scf accuracy    <       0.00068304 Ry

     iteration #  4     ecut=    40.00 Ry     beta=0.70
     CG style diagonalization
     c_bands:  1 eigenvalues not converged
     ethr =  1.10E-06,  avg # of iterations =  3.8

     total cpu time spent up to now is      288.5 secs

     total energy              =    -645.12975714 Ry
     Harris-Foulkes estimate   =    -645.12977843 Ry
     estimated scf accuracy    <       0.00003124 Ry

     iteration #  5     ecut=    40.00 Ry     beta=0.70
     CG style diagonalization
     ethr =  5.04E-08,  avg # of iterations =  4.1

     total cpu time spent up to now is      294.5 secs

     total energy              =    -645.12977179 Ry
     Harris-Foulkes estimate   =    -645.12977418 Ry
     estimated scf accuracy    <       0.00000349 Ry

     iteration #  6     ecut=    40.00 Ry     beta=0.70
     CG style diagonalization
     ethr =  5.63E-09,  avg # of iterations =  3.9

     total cpu time spent up to now is      299.7 secs

     End of self-consistent calculation

     Number of k-points >= 100: set verbosity='high' to print the bands.

     the Fermi energy is    30.9589 ev

!    total energy              =    -645.12977285 Ry
     Harris-Foulkes estimate   =    -645.12977292 Ry
     estimated scf accuracy    <       0.00000014 Ry

     The total energy is the sum of the following terms:

     one-electron contribution =     -67.14861232 Ry
     hartree contribution      =      87.68504649 Ry
     xc contribution           =     -66.56904602 Ry
     ewald contribution        =    -598.93666417 Ry
     smearing contrib. (-TS)   =      -0.16049683 Ry

     convergence has been achieved in   6 iterations

     Forces acting on atoms (Ry/au):

     atom    1 type  1   force =     0.00000000    0.00000000    0.00000000
     atom    2 type  1   force =     0.00000000    0.00000000    0.00000000
     atom    3 type  1   force =     0.00000000    0.00000000    0.00000000
     atom    4 type  2   force =     0.00000000    0.00000000    0.00000000

     Total force =     0.000000     Total SCF correction =     0.000000


     entering subroutine stress ...

          total   stress  (Ry/bohr**3)                   (kbar)     P=  705.98
   0.00479915   0.00000000   0.00000000        705.98      0.00      0.00
   0.00000000   0.00479915   0.00000000          0.00    705.98      0.00
   0.00000000   0.00000000   0.00479915          0.00      0.00    705.98


     The maximum number of steps has been reached.

     End of BFGS Geometry Optimization
Begin final coordinates
     new unit-cell volume =    445.73460 a.u.^3 (    66.05105 Ang^3 )

CELL_PARAMETERS (alat=  7.13166486)
   1.071111107   0.000000000   0.000000000
   0.000000000   1.071111107   0.000000000
   0.000000000   0.000000000   1.071111107

ATOMIC_POSITIONS (crystal)
Cu       0.000000000   0.500000000   0.500000000
Cu       0.500000000   0.500000000   0.000000000
Cu       0.500000000   0.000000000   0.500000000
Au       0.000000000   0.000000000   0.000000000
End final coordinates



     A final scf calculation at the relaxed structure.
     The G-vectors are recalculated for the final unit cell
     Results may differ from those at the preceding step.
 
     Parallelization info
     --------------------
     sticks:   dense  smooth     PW     G-vecs:    dense   smooth      PW
     Min         187     187     55                 3817     3817     629
     Max         188     188     56                 3820     3820     630
     Sum         749     749    221                15275    15275    2517
 


     bravais-lattice index     =            0
     lattice parameter (alat)  =       7.1317  a.u.
     unit-cell volume          =     445.7346 (a.u.)^3
     number of atoms/cell      =            4
     number of atomic types    =            2
     number of electrons       =        62.00
     number of Kohn-Sham states=           37
     kinetic-energy cutoff     =      40.0000  Ry
     charge density cutoff     =     160.0000  Ry
     convergence threshold     =      1.0E-06
     mixing beta               =       0.7000
     number of iterations used =            8  plain     mixing
     Exchange-correlation      = SLA-PZ-NOGX-NOGC ( 1 1 0 0 0)
     EXX-fraction              =        0.00

     celldm(1)=   7.131665  celldm(2)=   0.000000  celldm(3)=   0.000000
     celldm(4)=   0.000000  celldm(5)=   0.000000  celldm(6)=   0.000000

     crystal axes: (cart. coord. in units of alat)
               a(1) = (   1.071111   0.000000   0.000000 )  
               a(2) = (   0.000000   1.071111   0.000000 )  
               a(3) = (   0.000000   0.000000   1.071111 )  

     reciprocal axes: (cart. coord. in units 2 pi/alat)
               b(1) = (  0.933610  0.000000  0.000000 )  
               b(2) = (  0.000000  0.933610  0.000000 )  
               b(3) = (  0.000000  0.000000  0.933610 )  


     PseudoPot. # 1 for Pr read from file:
     /home/cwx6513/pp.La/Pr.UPF
     MD5 check sum: 70e2b4b153859e92c8c91247dfc63203
     Pseudo is Norm-conserving, Zval = 13.0
     Generated in analytical, separable form
     Using radial grid of 1255 points,  6 beta functions with: 
                l(1) =   0
                l(2) =   0
                l(3) =   1
                l(4) =   1
                l(5) =   2
                l(6) =   3

     PseudoPot. # 2 for Tm read from file:
     /home/cwx6513/pp.La/Tm.UPF
     MD5 check sum: 245516e0878b5372ceeb9443ded2c4e1
     Pseudo is Norm-conserving, Zval = 23.0
     Generated in analytical, separable form
     Using radial grid of 1269 points,  6 beta functions with: 
                l(1) =   0
                l(2) =   0
                l(3) =   1
                l(4) =   1
                l(5) =   2
                l(6) =   3

     atomic species   valence    mass     pseudopotential
        Cu            13.00    63.54600     Pr( 1.00)
        Au            23.00   196.96600     Tm( 1.00)

     48 Sym. Ops., with inversion, found



   Cartesian axes

     site n.     atom                  positions (alat units)
         1           Cu  tau(   1) = (   0.0000000   0.5355556   0.5355556  )
         2           Cu  tau(   2) = (   0.5355556   0.5355556   0.0000000  )
         3           Cu  tau(   3) = (   0.5355556   0.0000000   0.5355556  )
         4           Au  tau(   4) = (   0.0000000   0.0000000   0.0000000  )

     number of k points=   100  gaussian smearing, width (Ry)=  0.1000

     Number of k-points >= 100: set verbosity='high' to print them.

     Dense  grid:    15275 G-vectors     FFT dimensions: (  32,  32,  32)

     Largest allocated arrays     est. size (Mb)     dimensions
        Kohn-Sham Wavefunctions         0.27 Mb     (    485,   37)
        NL pseudopotentials             0.59 Mb     (    485,   80)
        Each V/rho on FFT grid          0.12 Mb     (   8192)
        Each G-vector array             0.03 Mb     (   3819)
        G-vector shells                 0.00 Mb     (    198)
     Largest temporary arrays     est. size (Mb)     dimensions
        Each subspace H/S matrix        0.02 Mb     (  37,  37)
        Each <psi_i|beta_j> matrix      0.05 Mb     (     80,   37)
        Arrays for rho mixing           1.00 Mb     (   8192,   8)

     Initial potential from superposition of free atoms
     Check: negative starting charge=   -0.000102

     starting charge   38.97163, renormalised to   62.00000

     negative rho (up, down):  0.162E-03 0.000E+00
     Starting wfc are   60 randomized atomic wfcs

     Writing output data file Prototype-La-cP4-Cu3Au.save

     total cpu time spent up to now is      307.3 secs

     Self-consistent Calculation

     iteration #  1     ecut=    40.00 Ry     beta=0.70
     CG style diagonalization
     c_bands:  4 eigenvalues not converged
     c_bands:  2 eigenvalues not converged
     c_bands:  2 eigenvalues not converged
     c_bands:  4 eigenvalues not converged
     c_bands:  2 eigenvalues not converged
     c_bands:  4 eigenvalues not converged
     c_bands:  2 eigenvalues not converged
     c_bands:  2 eigenvalues not converged
     c_bands:  2 eigenvalues not converged
     c_bands:  2 eigenvalues not converged
     c_bands:  1 eigenvalues not converged
     c_bands:  2 eigenvalues not converged
     c_bands:  3 eigenvalues not converged
     c_bands:  2 eigenvalues not converged
     c_bands:  4 eigenvalues not converged
     c_bands:  5 eigenvalues not converged
     c_bands:  3 eigenvalues not converged
     c_bands:  2 eigenvalues not converged
     c_bands:  5 eigenvalues not converged
     c_bands:  2 eigenvalues not converged
     c_bands:  2 eigenvalues not converged
     c_bands:  2 eigenvalues not converged
     c_bands:  5 eigenvalues not converged
     c_bands:  2 eigenvalues not converged
     c_bands:  2 eigenvalues not converged
     c_bands:  1 eigenvalues not converged
     c_bands:  2 eigenvalues not converged
     c_bands:  2 eigenvalues not converged
     c_bands:  4 eigenvalues not converged
     c_bands:  2 eigenvalues not converged
     c_bands:  3 eigenvalues not converged
     c_bands:  2 eigenvalues not converged
     c_bands:  2 eigenvalues not converged
     c_bands:  2 eigenvalues not converged
     c_bands:  3 eigenvalues not converged
     c_bands:  2 eigenvalues not converged
     c_bands:  2 eigenvalues not converged
     c_bands:  3 eigenvalues not converged
     c_bands:  2 eigenvalues not converged
     c_bands:  5 eigenvalues not converged
     c_bands:  2 eigenvalues not converged
     c_bands:  3 eigenvalues not converged
     c_bands:  2 eigenvalues not converged
     c_bands:  2 eigenvalues not converged
     c_bands:  2 eigenvalues not converged
     c_bands:  2 eigenvalues not converged
     c_bands:  2 eigenvalues not converged
     c_bands:  5 eigenvalues not converged
     c_bands:  2 eigenvalues not converged
     c_bands:  1 eigenvalues not converged
     c_bands:  1 eigenvalues not converged
     c_bands:  2 eigenvalues not converged
     c_bands:  4 eigenvalues not converged
     c_bands:  4 eigenvalues not converged
     c_bands:  5 eigenvalues not converged
     c_bands:  2 eigenvalues not converged
     c_bands:  2 eigenvalues not converged
     c_bands:  2 eigenvalues not converged
     c_bands:  2 eigenvalues not converged
     c_bands:  3 eigenvalues not converged
     c_bands:  1 eigenvalues not converged
     c_bands:  2 eigenvalues not converged
     c_bands:  3 eigenvalues not converged
     c_bands:  2 eigenvalues not converged
     c_bands:  2 eigenvalues not converged
     c_bands:  5 eigenvalues not converged
     c_bands:  2 eigenvalues not converged
     c_bands:  2 eigenvalues not converged
     c_bands:  2 eigenvalues not converged
     c_bands:  2 eigenvalues not converged
     c_bands:  4 eigenvalues not converged
     c_bands:  2 eigenvalues not converged
     c_bands:  2 eigenvalues not converged
     c_bands:  2 eigenvalues not converged
     c_bands:  2 eigenvalues not converged
     c_bands:  2 eigenvalues not converged
     c_bands:  2 eigenvalues not converged
     c_bands:  2 eigenvalues not converged
     c_bands:  2 eigenvalues not converged
     c_bands:  4 eigenvalues not converged
     c_bands:  2 eigenvalues not converged
     c_bands:  2 eigenvalues not converged
     c_bands:  3 eigenvalues not converged
     c_bands:  2 eigenvalues not converged
     c_bands:  2 eigenvalues not converged
     c_bands:  5 eigenvalues not converged
     c_bands:  2 eigenvalues not converged
     c_bands:  2 eigenvalues not converged
     c_bands:  2 eigenvalues not converged
     c_bands:  2 eigenvalues not converged
     c_bands:  3 eigenvalues not converged
     c_bands:  2 eigenvalues not converged
     c_bands:  4 eigenvalues not converged
     c_bands:  3 eigenvalues not converged
     c_bands:  2 eigenvalues not converged
     c_bands:  2 eigenvalues not converged
     c_bands:  2 eigenvalues not converged
     c_bands:  2 eigenvalues not converged
     c_bands:  5 eigenvalues not converged
     ethr =  1.00E-06,  avg # of iterations = 53.6

     negative rho (up, down):  0.470E-04 0.000E+00

     total cpu time spent up to now is      396.7 secs

     total energy              =     230.12744269 Ry
     Harris-Foulkes estimate   =   -1289.13392808 Ry
     estimated scf accuracy    <    1779.74720498 Ry

     iteration #  2     ecut=    40.00 Ry     beta=0.70
     CG style diagonalization
     c_bands:  5 eigenvalues not converged
     c_bands:  4 eigenvalues not converged
     c_bands:  4 eigenvalues not converged
     c_bands:  4 eigenvalues not converged
     c_bands:  5 eigenvalues not converged
     c_bands:  4 eigenvalues not converged
     c_bands:  5 eigenvalues not converged
     c_bands:  5 eigenvalues not converged
     c_bands:  5 eigenvalues not converged
     c_bands:  5 eigenvalues not converged
     c_bands:  5 eigenvalues not converged
     c_bands:  4 eigenvalues not converged
     c_bands:  5 eigenvalues not converged
     c_bands:  3 eigenvalues not converged
     c_bands:  5 eigenvalues not converged
     c_bands:  5 eigenvalues not converged
     c_bands:  3 eigenvalues not converged
     c_bands:  5 eigenvalues not converged
     c_bands:  3 eigenvalues not converged
     c_bands:  4 eigenvalues not converged
     c_bands:  4 eigenvalues not converged
     c_bands:  5 eigenvalues not converged
     c_bands:  4 eigenvalues not converged
     c_bands:  4 eigenvalues not converged
     c_bands:  4 eigenvalues not converged
     c_bands:  5 eigenvalues not converged
     c_bands:  4 eigenvalues not converged
     c_bands:  5 eigenvalues not converged
     c_bands:  2 eigenvalues not converged
     c_bands:  5 eigenvalues not converged
     c_bands:  5 eigenvalues not converged
     c_bands:  4 eigenvalues not converged
     c_bands:  5 eigenvalues not converged
     c_bands:  4 eigenvalues not converged
     c_bands:  4 eigenvalues not converged
     c_bands:  4 eigenvalues not converged
     ethr =  1.00E-02,  avg # of iterations = 19.2

     negative rho (up, down):  0.130E-04 0.000E+00

     total cpu time spent up to now is      424.2 secs

     total energy              =    -640.27793848 Ry
     Harris-Foulkes estimate   =   -1248.38677826 Ry
     estimated scf accuracy    <     983.42188645 Ry

     iteration #  3     ecut=    40.00 Ry     beta=0.70
     CG style diagonalization
     c_bands:  1 eigenvalues not converged
     c_bands:  1 eigenvalues not converged
     c_bands:  1 eigenvalues not converged
     ethr =  1.00E-02,  avg # of iterations =  9.5

     total cpu time spent up to now is      438.2 secs

     total energy              =    -650.94200415 Ry
     Harris-Foulkes estimate   =    -687.76402971 Ry
     estimated scf accuracy    <     128.68438587 Ry

     iteration #  4     ecut=    40.00 Ry     beta=0.70
     CG style diagonalization
     ethr =  1.00E-02,  avg # of iterations =  4.9

     total cpu time spent up to now is      445.0 secs

     total energy              =    -647.64491007 Ry
     Harris-Foulkes estimate   =    -655.34523928 Ry
     estimated scf accuracy    <      34.82291058 Ry

     iteration #  5     ecut=    40.00 Ry     beta=0.70
     CG style diagonalization
     ethr =  1.00E-02,  avg # of iterations =  3.6

     total cpu time spent up to now is      449.9 secs

     total energy              =    -641.07984586 Ry
     Harris-Foulkes estimate   =    -649.07027579 Ry
     estimated scf accuracy    <      13.79157267 Ry

     iteration #  6     ecut=    40.00 Ry     beta=0.70
     CG style diagonalization
     ethr =  1.00E-02,  avg # of iterations =  4.0

     total cpu time spent up to now is      455.5 secs

     total energy              =    -645.50308901 Ry
     Harris-Foulkes estimate   =    -645.70801614 Ry
     estimated scf accuracy    <       0.61634017 Ry

     iteration #  7     ecut=    40.00 Ry     beta=0.70
     CG style diagonalization
     c_bands:  1 eigenvalues not converged
     c_bands:  1 eigenvalues not converged
     c_bands:  1 eigenvalues not converged
     c_bands:  1 eigenvalues not converged
     c_bands:  1 eigenvalues not converged
     ethr =  9.94E-04,  avg # of iterations =  4.4

     total cpu time spent up to now is      461.7 secs

     total energy              =    -645.39519794 Ry
     Harris-Foulkes estimate   =    -645.62174982 Ry
     estimated scf accuracy    <       0.28612115 Ry

     iteration #  8     ecut=    40.00 Ry     beta=0.70
     CG style diagonalization
     c_bands:  1 eigenvalues not converged
     c_bands:  1 eigenvalues not converged
     ethr =  4.61E-04,  avg # of iterations =  3.9

     total cpu time spent up to now is      467.1 secs

     total energy              =    -645.50106509 Ry
     Harris-Foulkes estimate   =    -645.54858146 Ry
     estimated scf accuracy    <       0.08844840 Ry

     iteration #  9     ecut=    40.00 Ry     beta=0.70
     CG style diagonalization
     c_bands:  1 eigenvalues not converged
     c_bands:  1 eigenvalues not converged
     c_bands:  1 eigenvalues not converged
     c_bands:  1 eigenvalues not converged
     c_bands:  1 eigenvalues not converged
     c_bands:  1 eigenvalues not converged
     c_bands:  1 eigenvalues not converged
     ethr =  1.43E-04,  avg # of iterations =  3.7

     total cpu time spent up to now is      472.2 secs

     total energy              =    -645.51270938 Ry
     Harris-Foulkes estimate   =    -645.51820897 Ry
     estimated scf accuracy    <       0.00955182 Ry

     iteration # 10     ecut=    40.00 Ry     beta=0.70
     CG style diagonalization
     c_bands:  1 eigenvalues not converged
     c_bands:  1 eigenvalues not converged
     c_bands:  1 eigenvalues not converged
     c_bands:  1 eigenvalues not converged
     c_bands:  1 eigenvalues not converged
     c_bands:  1 eigenvalues not converged
     c_bands:  1 eigenvalues not converged
     c_bands:  1 eigenvalues not converged
     c_bands:  1 eigenvalues not converged
     ethr =  1.54E-05,  avg # of iterations =  4.3

     total cpu time spent up to now is      478.1 secs

     total energy              =    -645.51525610 Ry
     Harris-Foulkes estimate   =    -645.51557005 Ry
     estimated scf accuracy    <       0.00083664 Ry

     iteration # 11     ecut=    40.00 Ry     beta=0.70
     CG style diagonalization
     c_bands:  1 eigenvalues not converged
     c_bands:  1 eigenvalues not converged
     c_bands:  1 eigenvalues not converged
     c_bands:  1 eigenvalues not converged
     c_bands:  1 eigenvalues not converged
     ethr =  1.35E-06,  avg # of iterations =  4.5

     total cpu time spent up to now is      484.7 secs

     total energy              =    -645.51538218 Ry
     Harris-Foulkes estimate   =    -645.51561357 Ry
     estimated scf accuracy    <       0.00062848 Ry

     iteration # 12     ecut=    40.00 Ry     beta=0.70
     CG style diagonalization
     ethr =  1.01E-06,  avg # of iterations =  3.0

     total cpu time spent up to now is      490.9 secs

     total energy              =    -645.51531256 Ry
     Harris-Foulkes estimate   =    -645.51541509 Ry
     estimated scf accuracy    <       0.00017672 Ry

     iteration # 13     ecut=    40.00 Ry     beta=0.70
     CG style diagonalization
     ethr =  2.85E-07,  avg # of iterations =  4.0

     total cpu time spent up to now is      496.4 secs

     total energy              =    -645.51537091 Ry
     Harris-Foulkes estimate   =    -645.51537395 Ry
     estimated scf accuracy    <       0.00000452 Ry

     iteration # 14     ecut=    40.00 Ry     beta=0.70
     CG style diagonalization
     ethr =  7.29E-09,  avg # of iterations =  4.4

     total cpu time spent up to now is      502.5 secs

     End of self-consistent calculation

     Number of k-points >= 100: set verbosity='high' to print the bands.

     the Fermi energy is    30.9243 ev

!    total energy              =    -645.51537405 Ry
     Harris-Foulkes estimate   =    -645.51537431 Ry
     estimated scf accuracy    <       0.00000029 Ry

     The total energy is the sum of the following terms:

     one-electron contribution =     -67.77506376 Ry
     hartree contribution      =      87.97212752 Ry
     xc contribution           =     -66.61465484 Ry
     ewald contribution        =    -598.93666397 Ry
     smearing contrib. (-TS)   =      -0.16111900 Ry

     convergence has been achieved in  14 iterations

     Forces acting on atoms (Ry/au):

     atom    1 type  1   force =     0.00000000    0.00000000    0.00000000
     atom    2 type  1   force =     0.00000000    0.00000000    0.00000000
     atom    3 type  1   force =     0.00000000    0.00000000    0.00000000
     atom    4 type  2   force =     0.00000000    0.00000000    0.00000000

     Total force =     0.000000     Total SCF correction =     0.000000


     entering subroutine stress ...

          total   stress  (Ry/bohr**3)                   (kbar)     P= 1010.99
   0.00687257   0.00000000   0.00000000       1010.99      0.00      0.00
   0.00000000   0.00687257   0.00000000          0.00   1010.99      0.00
   0.00000000   0.00000000   0.00687257          0.00      0.00   1010.99


     Writing output data file Prototype-La-cP4-Cu3Au.save
 
     init_run     :      6.84s CPU      7.79s WALL (       2 calls)
     electrons    :    450.13s CPU    486.52s WALL (       5 calls)
     update_pot   :      0.84s CPU      0.86s WALL (       3 calls)
     forces       :      1.88s CPU      2.09s WALL (       5 calls)
     stress       :      5.11s CPU      5.17s WALL (       5 calls)

     Called by init_run:
     wfcinit      :      6.47s CPU      7.41s WALL (       2 calls)
     potinit      :      0.12s CPU      0.12s WALL (       2 calls)

     Called by electrons:
     c_bands      :    432.26s CPU    462.37s WALL (      47 calls)
     sum_band     :     17.63s CPU     18.58s WALL (      47 calls)
     v_of_rho     :      0.03s CPU      0.04s WALL (      52 calls)
     mix_rho      :      0.03s CPU      0.04s WALL (      47 calls)

     Called by c_bands:
     init_us_2    :      2.36s CPU      2.59s WALL (   10600 calls)
     ccgdiagg     :    378.75s CPU    400.92s WALL (    5362 calls)
     wfcrot       :     57.87s CPU     64.13s WALL (    5462 calls)

     Called by *cgdiagg:
     h_psi        :    307.71s CPU    336.35s WALL ( 1088337 calls)
     cdiaghg      :      2.79s CPU      3.14s WALL (    5462 calls)

     Called by h_psi:
     add_vuspsi   :     23.98s CPU     34.28s WALL ( 1088337 calls)

     General routines
     calbec       :     80.91s CPU     79.60s WALL ( 2172212 calls)
     fft          :      0.07s CPU      0.07s WALL (     231 calls)
     fftw         :    232.80s CPU    242.91s WALL ( 2753038 calls)
     davcio       :      1.17s CPU      3.72s WALL (   15300 calls)
 
     Parallel routines
     fft_scatter  :     82.62s CPU     90.49s WALL ( 2753269 calls)
 
     PWSCF        :  7m45.85s CPU     8m24.26s WALL

 
   This run was terminated on:  16:30:13  22Mar2018            

=------------------------------------------------------------------------------=
   JOB DONE.
=------------------------------------------------------------------------------=
