
     Program PWSCF v.5.0.2 starts on 22Mar2018 at 16:21:48 

     This program is part of the open-source Quantum ESPRESSO suite
     for quantum simulation of materials; please cite
         "P. Giannozzi et al., J. Phys.:Condens. Matter 21 395502 (2009);
          URL http://www.quantum-espresso.org", 
     in publications or presentations arising from this work. More details at
     http://www.quantum-espresso.org/quote.php

     Parallel version (MPI), running on     4 processors
     R & G space division:  proc/nbgrp/npool/nimage =       4

     Current dimensions of program PWSCF are:
     Max number of different atomic species (ntypx) = 10
     Max number of k-points (npk) =  40000
     Max angular momentum in pseudopotentials (lmaxx) =  3
     Waiting for input...
     Reading input from standard input

     Subspace diagonalization in iterative solution of the eigenvalue problem:
     a serial algorithm will be used

 
     Parallelization info
     --------------------
     sticks:   dense  smooth     PW     G-vecs:    dense   smooth      PW
     Min         162     162     52                 2693     2693     497
     Max         163     163     54                 2695     2695     498
     Sum         649     649    211                10777    10777    1989
 


     bravais-lattice index     =            0
     lattice parameter (alat)  =       7.6055  a.u.
     unit-cell volume          =     311.0722 (a.u.)^3
     number of atoms/cell      =            2
     number of atomic types    =            2
     number of electrons       =        36.00
     number of Kohn-Sham states=           22
     kinetic-energy cutoff     =      40.0000  Ry
     charge density cutoff     =     160.0000  Ry
     convergence threshold     =      1.0E-04
     mixing beta               =       0.7000
     number of iterations used =            8  plain     mixing
     Exchange-correlation      = SLA-PZ-NOGX-NOGC ( 1 1 0 0 0)
     EXX-fraction              =        0.00
     nstep                     =           50


     celldm(1)=   7.605458  celldm(2)=   0.000000  celldm(3)=   0.000000
     celldm(4)=   0.000000  celldm(5)=   0.000000  celldm(6)=   0.000000

     crystal axes: (cart. coord. in units of alat)
               a(1) = (   1.000000   0.000000   0.000000 )  
               a(2) = (   0.500000   0.866025   0.000000 )  
               a(3) = (   0.500000   0.288675   0.816497 )  

     reciprocal axes: (cart. coord. in units 2 pi/alat)
               b(1) = (  1.000000 -0.577350 -0.408248 )  
               b(2) = (  0.000000  1.154701 -0.408248 )  
               b(3) = (  0.000000  0.000000  1.224745 )  


     PseudoPot. # 1 for Pr read from file:
     /home/cwx6513/pp.La/Pr.UPF
     MD5 check sum: 70e2b4b153859e92c8c91247dfc63203
     Pseudo is Norm-conserving, Zval = 13.0
     Generated in analytical, separable form
     Using radial grid of 1255 points,  6 beta functions with: 
                l(1) =   0
                l(2) =   0
                l(3) =   1
                l(4) =   1
                l(5) =   2
                l(6) =   3

     PseudoPot. # 2 for Tm read from file:
     /home/cwx6513/pp.La/Tm.UPF
     MD5 check sum: 245516e0878b5372ceeb9443ded2c4e1
     Pseudo is Norm-conserving, Zval = 23.0
     Generated in analytical, separable form
     Using radial grid of 1269 points,  6 beta functions with: 
                l(1) =   0
                l(2) =   0
                l(3) =   1
                l(4) =   1
                l(5) =   2
                l(6) =   3

     atomic species   valence    mass     pseudopotential
        Na            13.00    22.98970     Pr( 1.00)
        Cl            23.00    35.45300     Tm( 1.00)

     12 Sym. Ops., with inversion, found



   Cartesian axes

     site n.     atom                  positions (alat units)
         1           Na  tau(   1) = (   0.0000000   0.0000000   0.0000000  )
         2           Cl  tau(   2) = (   1.0000000   0.5773503   0.4082483  )

     number of k points=   496  gaussian smearing, width (Ry)=  0.1000

     Number of k-points >= 100: set verbosity='high' to print them.

     Dense  grid:    10777 G-vectors     FFT dimensions: (  32,  32,  32)

     Largest allocated arrays     est. size (Mb)     dimensions
        Kohn-Sham Wavefunctions         0.12 Mb     (    343,   22)
        NL pseudopotentials             0.21 Mb     (    343,   40)
        Each V/rho on FFT grid          0.12 Mb     (   8192)
        Each G-vector array             0.02 Mb     (   2694)
        G-vector shells                 0.02 Mb     (   2694)
     Largest temporary arrays     est. size (Mb)     dimensions
        Each subspace H/S matrix        0.01 Mb     (  22,  22)
        Each <psi_i|beta_j> matrix      0.01 Mb     (     40,   22)
        Arrays for rho mixing           1.00 Mb     (   8192,   8)

     Initial potential from superposition of free atoms

     starting charge   12.99054, renormalised to   36.00000

     negative rho (up, down):  0.220E-03 0.000E+00
     Starting wfc are   20 randomized atomic wfcs

     total cpu time spent up to now is        4.6 secs

     Self-consistent Calculation

     iteration #  1     ecut=    40.00 Ry     beta=0.70
     CG style diagonalization
     c_bands:  4 eigenvalues not converged
     c_bands:  5 eigenvalues not converged
     c_bands:  5 eigenvalues not converged
     c_bands:  4 eigenvalues not converged
     c_bands:  5 eigenvalues not converged
     c_bands:  5 eigenvalues not converged
     c_bands:  5 eigenvalues not converged
     c_bands:  5 eigenvalues not converged
     c_bands:  5 eigenvalues not converged
     c_bands:  5 eigenvalues not converged
     c_bands:  5 eigenvalues not converged
     c_bands:  5 eigenvalues not converged
     c_bands:  4 eigenvalues not converged
     c_bands:  5 eigenvalues not converged
     ethr =  1.00E-02,  avg # of iterations = 21.4

     negative rho (up, down):  0.652E-04 0.000E+00

     total cpu time spent up to now is      105.1 secs

     total energy              =    -234.99470048 Ry
     Harris-Foulkes estimate   =    -965.30812240 Ry
     estimated scf accuracy    <     871.10836719 Ry

     iteration #  2     ecut=    40.00 Ry     beta=0.70
     CG style diagonalization
     c_bands:  1 eigenvalues not converged
     c_bands:  1 eigenvalues not converged
     c_bands:  1 eigenvalues not converged
     c_bands:  1 eigenvalues not converged
     c_bands:  1 eigenvalues not converged
     ethr =  1.00E-02,  avg # of iterations = 11.9

     negative rho (up, down):  0.317E-04 0.000E+00

     total cpu time spent up to now is      159.9 secs

     total energy              =    -376.22255155 Ry
     Harris-Foulkes estimate   =    -566.03734115 Ry
     estimated scf accuracy    <     289.50984608 Ry

     iteration #  3     ecut=    40.00 Ry     beta=0.70
     CG style diagonalization
     c_bands:  1 eigenvalues not converged
     ethr =  1.00E-02,  avg # of iterations = 10.8

     negative rho (up, down):  0.895E-05 0.000E+00

     total cpu time spent up to now is      209.1 secs

     total energy              =    -456.32354113 Ry
     Harris-Foulkes estimate   =    -469.98776575 Ry
     estimated scf accuracy    <      26.51170441 Ry

     iteration #  4     ecut=    40.00 Ry     beta=0.70
     CG style diagonalization
     ethr =  1.00E-02,  avg # of iterations =  5.0

     negative rho (up, down):  0.719E-06 0.000E+00

     total cpu time spent up to now is      232.5 secs

     total energy              =    -460.36546880 Ry
     Harris-Foulkes estimate   =    -460.58146417 Ry
     estimated scf accuracy    <       0.98721878 Ry

     iteration #  5     ecut=    40.00 Ry     beta=0.70
     CG style diagonalization
     ethr =  2.74E-03,  avg # of iterations =  3.2

     total cpu time spent up to now is      248.4 secs

     total energy              =    -460.05429137 Ry
     Harris-Foulkes estimate   =    -460.43940387 Ry
     estimated scf accuracy    <       0.56913297 Ry

     iteration #  6     ecut=    40.00 Ry     beta=0.70
     CG style diagonalization
     ethr =  1.58E-03,  avg # of iterations =  3.8

     total cpu time spent up to now is      265.8 secs

     total energy              =    -460.25033592 Ry
     Harris-Foulkes estimate   =    -460.25027100 Ry
     estimated scf accuracy    <       0.04107893 Ry

     iteration #  7     ecut=    40.00 Ry     beta=0.70
     CG style diagonalization
     c_bands:  1 eigenvalues not converged
     ethr =  1.14E-04,  avg # of iterations =  4.2

     total cpu time spent up to now is      286.4 secs

     total energy              =    -460.25573353 Ry
     Harris-Foulkes estimate   =    -460.25985048 Ry
     estimated scf accuracy    <       0.05012306 Ry

     iteration #  8     ecut=    40.00 Ry     beta=0.70
     CG style diagonalization
     ethr =  1.14E-04,  avg # of iterations =  3.0

     total cpu time spent up to now is      300.3 secs

     total energy              =    -460.26506325 Ry
     Harris-Foulkes estimate   =    -460.25684878 Ry
     estimated scf accuracy    <       0.04058440 Ry

     iteration #  9     ecut=    40.00 Ry     beta=0.70
     CG style diagonalization
     ethr =  1.13E-04,  avg # of iterations =  3.3

     total cpu time spent up to now is      316.3 secs

     total energy              =    -460.27844846 Ry
     Harris-Foulkes estimate   =    -460.27132240 Ry
     estimated scf accuracy    <       0.07629405 Ry

     iteration # 10     ecut=    40.00 Ry     beta=0.70
     CG style diagonalization
     ethr =  1.13E-04,  avg # of iterations =  3.0

     total cpu time spent up to now is      335.8 secs

     total energy              =    -460.27631355 Ry
     Harris-Foulkes estimate   =    -460.27925545 Ry
     estimated scf accuracy    <       0.09474727 Ry

     iteration # 11     ecut=    40.00 Ry     beta=0.70
     CG style diagonalization
     ethr =  1.13E-04,  avg # of iterations =  3.0

     total cpu time spent up to now is      350.4 secs

     total energy              =    -460.28895018 Ry
     Harris-Foulkes estimate   =    -460.27647334 Ry
     estimated scf accuracy    <       0.09165984 Ry

     iteration # 12     ecut=    40.00 Ry     beta=0.70
     CG style diagonalization
     ethr =  1.13E-04,  avg # of iterations =  3.0

     total cpu time spent up to now is      367.1 secs

     total energy              =    -460.26631801 Ry
     Harris-Foulkes estimate   =    -460.28989530 Ry
     estimated scf accuracy    <       0.12628168 Ry

     iteration # 13     ecut=    40.00 Ry     beta=0.70
     CG style diagonalization
     ethr =  1.13E-04,  avg # of iterations =  3.0

     total cpu time spent up to now is      381.4 secs

     total energy              =    -460.26438254 Ry
     Harris-Foulkes estimate   =    -460.26799826 Ry
     estimated scf accuracy    <       0.07827125 Ry

     iteration # 14     ecut=    40.00 Ry     beta=0.70
     CG style diagonalization
     ethr =  1.13E-04,  avg # of iterations =  3.0

     total cpu time spent up to now is      399.8 secs

     total energy              =    -460.26290530 Ry
     Harris-Foulkes estimate   =    -460.26478546 Ry
     estimated scf accuracy    <       0.06666532 Ry

     iteration # 15     ecut=    40.00 Ry     beta=0.70
     CG style diagonalization
     ethr =  1.13E-04,  avg # of iterations =  3.0

     negative rho (up, down):  0.136E-05 0.000E+00

     total cpu time spent up to now is      413.8 secs

     total energy              =    -460.22114417 Ry
     Harris-Foulkes estimate   =    -460.26306435 Ry
     estimated scf accuracy    <       0.06049631 Ry

     iteration # 16     ecut=    40.00 Ry     beta=0.70
     CG style diagonalization
     ethr =  1.13E-04,  avg # of iterations =  5.0

     negative rho (up, down):  0.759E-06 0.000E+00

     total cpu time spent up to now is      438.6 secs

     total energy              =    -460.26152022 Ry
     Harris-Foulkes estimate   =    -460.34169329 Ry
     estimated scf accuracy    <       0.25448267 Ry

     iteration # 17     ecut=    40.00 Ry     beta=0.70
     CG style diagonalization
     ethr =  1.13E-04,  avg # of iterations =  3.6

     negative rho (up, down):  0.173E-05 0.000E+00

     total cpu time spent up to now is      455.8 secs

     total energy              =    -460.22051104 Ry
     Harris-Foulkes estimate   =    -460.27390605 Ry
     estimated scf accuracy    <       0.08196798 Ry

     iteration # 18     ecut=    40.00 Ry     beta=0.70
     CG style diagonalization
     ethr =  1.13E-04,  avg # of iterations =  4.0

     total cpu time spent up to now is      473.6 secs

     total energy              =    -460.24352640 Ry
     Harris-Foulkes estimate   =    -460.24505317 Ry
     estimated scf accuracy    <       0.00259187 Ry

     iteration # 19     ecut=    40.00 Ry     beta=0.70
     CG style diagonalization
     c_bands:  1 eigenvalues not converged
     c_bands:  1 eigenvalues not converged
     ethr =  7.20E-06,  avg # of iterations =  4.0

     total cpu time spent up to now is      493.2 secs

     total energy              =    -460.24472211 Ry
     Harris-Foulkes estimate   =    -460.24444008 Ry
     estimated scf accuracy    <       0.00017677 Ry

     iteration # 20     ecut=    40.00 Ry     beta=0.70
     CG style diagonalization
     c_bands:  1 eigenvalues not converged
     ethr =  4.91E-07,  avg # of iterations =  4.4

     total cpu time spent up to now is      513.3 secs

     total energy              =    -460.24464725 Ry
     Harris-Foulkes estimate   =    -460.24500512 Ry
     estimated scf accuracy    <       0.00160802 Ry

     iteration # 21     ecut=    40.00 Ry     beta=0.70
     CG style diagonalization
     ethr =  4.91E-07,  avg # of iterations =  3.4

     total cpu time spent up to now is      529.5 secs

     total energy              =    -460.24471041 Ry
     Harris-Foulkes estimate   =    -460.24467878 Ry
     estimated scf accuracy    <       0.00081687 Ry

     iteration # 22     ecut=    40.00 Ry     beta=0.70
     CG style diagonalization
     ethr =  4.91E-07,  avg # of iterations =  3.0

     total cpu time spent up to now is      542.4 secs

     total energy              =    -460.24422379 Ry
     Harris-Foulkes estimate   =    -460.24471253 Ry
     estimated scf accuracy    <       0.00085842 Ry

     iteration # 23     ecut=    40.00 Ry     beta=0.70
     CG style diagonalization
     ethr =  4.91E-07,  avg # of iterations =  4.3

     total cpu time spent up to now is      562.8 secs

     End of self-consistent calculation

     Number of k-points >= 100: set verbosity='high' to print the bands.

     the Fermi energy is    22.7399 ev

!    total energy              =    -460.24436458 Ry
     Harris-Foulkes estimate   =    -460.24441372 Ry
     estimated scf accuracy    <       0.00005937 Ry

     The total energy is the sum of the following terms:

     one-electron contribution =    -153.04629301 Ry
     hartree contribution      =      92.65246682 Ry
     xc contribution           =     -41.62094708 Ry
     ewald contribution        =    -358.12443078 Ry
     smearing contrib. (-TS)   =      -0.10516053 Ry

     convergence has been achieved in  23 iterations

     Forces acting on atoms (Ry/au):

     atom    1 type  1   force =     0.00000000    0.00000000    0.00000000
     atom    2 type  2   force =     0.00000000    0.00000000    0.00000000

     Total force =     0.000000     Total SCF correction =     0.000000


     entering subroutine stress ...

          total   stress  (Ry/bohr**3)                   (kbar)     P=   18.17
   0.00012300   0.00000000   0.00000000         18.09      0.00      0.00
   0.00000000   0.00012300   0.00000000          0.00     18.09      0.00
   0.00000000   0.00000000   0.00012447          0.00      0.00     18.31


     BFGS Geometry Optimization

     number of scf cycles    =   1
     number of bfgs steps    =   0

     enthalpy new            =    -460.2443645802 Ry

     new trust radius        =       0.0109765486 bohr
     new conv_thr            =       0.0001000000 Ry

     new unit-cell volume =    313.96221 a.u.^3 (    46.52440 Ang^3 )

CELL_PARAMETERS (alat=  7.60545813)
   1.003075124   0.000000000   0.000000000
   0.501537562   0.868688539   0.000000000
   0.501537562   0.289562846   0.819037317

ATOMIC_POSITIONS (crystal)
Na       0.000000000   0.000000000   0.000000000
Cl       0.500000000   0.500000000   0.500000000



     Writing output data file Prototype-La-cF8-NaCl.save
     NEW-OLD atomic charge density approx. for the potential
     NEW k-points: (use verbosity='high' to print them)
     Check: negative starting charge=   -0.000100

     negative rho (up, down):  0.190E-04 0.000E+00
     extrapolated charge   36.11958, renormalised to   36.00000

     total cpu time spent up to now is      567.4 secs

     Self-consistent Calculation

     iteration #  1     ecut=    40.00 Ry     beta=0.70
     CG style diagonalization
     c_bands:  1 eigenvalues not converged
     c_bands:  1 eigenvalues not converged
     ethr =  1.00E-06,  avg # of iterations =  6.2

     negative rho (up, down):  0.404E-05 0.000E+00

     total cpu time spent up to now is      593.9 secs

     total energy              =    -460.22959187 Ry
     Harris-Foulkes estimate   =    -459.82323813 Ry
     estimated scf accuracy    <       0.03750396 Ry

     iteration #  2     ecut=    40.00 Ry     beta=0.70
     CG style diagonalization
     ethr =  1.04E-04,  avg # of iterations =  3.9

     negative rho (up, down):  0.135E-05 0.000E+00

     total cpu time spent up to now is      611.5 secs

     total energy              =    -460.23983872 Ry
     Harris-Foulkes estimate   =    -460.25054376 Ry
     estimated scf accuracy    <       0.01781597 Ry

     iteration #  3     ecut=    40.00 Ry     beta=0.70
     CG style diagonalization
     ethr =  4.95E-05,  avg # of iterations =  3.4

     total cpu time spent up to now is      626.5 secs

     End of self-consistent calculation

     Number of k-points >= 100: set verbosity='high' to print the bands.

     the Fermi energy is    22.5222 ev

!    total energy              =    -460.24394484 Ry
     Harris-Foulkes estimate   =    -460.24394496 Ry
     estimated scf accuracy    <       0.00001221 Ry

     The total energy is the sum of the following terms:

     one-electron contribution =    -154.64642869 Ry
     hartree contribution      =      93.11675098 Ry
     xc contribution           =     -41.58630657 Ry
     ewald contribution        =    -357.02218413 Ry
     smearing contrib. (-TS)   =      -0.10577643 Ry

     convergence has been achieved in   3 iterations

     Forces acting on atoms (Ry/au):

     atom    1 type  1   force =     0.00000000    0.00000000    0.00000000
     atom    2 type  2   force =     0.00000000    0.00000000    0.00000000

     Total force =     0.000000     Total SCF correction =     0.000000


     entering subroutine stress ...

          total   stress  (Ry/bohr**3)                   (kbar)     P=  -49.78
  -0.00033924   0.00000000   0.00000000        -49.90      0.00      0.00
   0.00000000  -0.00033924   0.00000000          0.00    -49.90      0.00
   0.00000000   0.00000000  -0.00033669          0.00      0.00    -49.53


     number of scf cycles    =   2
     number of bfgs steps    =   1

     enthalpy old            =    -460.2443645802 Ry
     enthalpy new            =    -460.2439448373 Ry

     CASE: enthalpy_new > enthalpy_old

     new trust radius        =       0.0025217617 bohr

     trust_radius < trust_radius_min

     resetting bfgs history

     new conv_thr            =       0.0001000000 Ry

     new unit-cell volume =    313.95329 a.u.^3 (    46.52308 Ang^3 )

CELL_PARAMETERS (alat=  7.60545813)
   1.003065585   0.000000000   0.000000000
   0.501532792   0.868680278   0.000000000
   0.501532792   0.289560093   0.819029621

ATOMIC_POSITIONS (crystal)
Na       0.000000000   0.000000000   0.000000000
Cl       0.500000000   0.500000000   0.500000000



     Writing output data file Prototype-La-cF8-NaCl.save
     Check: negative starting charge=   -0.000100
     NEW-OLD atomic charge density approx. for the potential
     NEW k-points: (use verbosity='high' to print them)
     Check: negative starting charge=   -0.000100
     extrapolated charge   35.99963, renormalised to   36.00000

     total cpu time spent up to now is      630.8 secs

     Self-consistent Calculation

     iteration #  1     ecut=    40.00 Ry     beta=0.70
     CG style diagonalization
     ethr =  1.00E-06,  avg # of iterations =  4.0

     Threshold (ethr) on eigenvalues was too large:
     Diagonalizing with lowered threshold

     CG style diagonalization
     ethr =  5.86E-08,  avg # of iterations =  3.8

     total cpu time spent up to now is      663.4 secs

     End of self-consistent calculation

     Number of k-points >= 100: set verbosity='high' to print the bands.

     the Fermi energy is    22.5191 ev

!    total energy              =    -460.24404664 Ry
     Harris-Foulkes estimate   =    -460.24542228 Ry
     estimated scf accuracy    <       0.00002683 Ry

     The total energy is the sum of the following terms:

     one-electron contribution =    -154.71284806 Ry
     hartree contribution      =      93.19335488 Ry
     xc contribution           =     -41.59316933 Ry
     ewald contribution        =    -357.02556604 Ry
     smearing contrib. (-TS)   =      -0.10581809 Ry

     convergence has been achieved in   1 iterations

     Forces acting on atoms (Ry/au):

     atom    1 type  1   force =     0.00000000    0.00000000    0.00000000
     atom    2 type  2   force =     0.00000000    0.00000000    0.00000000

     Total force =     0.000000     Total SCF correction =     0.000000


     entering subroutine stress ...

          total   stress  (Ry/bohr**3)                   (kbar)     P=  -17.07
  -0.00011667   0.00000000   0.00000000        -17.16      0.00      0.00
   0.00000000  -0.00011667   0.00000000          0.00    -17.16      0.00
   0.00000000   0.00000000  -0.00011476          0.00      0.00    -16.88


     number of scf cycles    =   3
     number of bfgs steps    =   1

     enthalpy old            =    -460.2443645802 Ry
     enthalpy new            =    -460.2440466351 Ry

     CASE: enthalpy_new > enthalpy_old

     new trust radius        =       0.0028897562 bohr

     trust_radius < trust_radius_min

     resetting bfgs history

     Message from routine bfgs:
     history already reset at previous step: stopping
     new conv_thr            =       0.0001000000 Ry

     new unit-cell volume =    313.95332 a.u.^3 (    46.52308 Ang^3 )

CELL_PARAMETERS (alat=  7.60545813)
   1.003065614   0.000000000   0.000000000
   0.501532807   0.868680303   0.000000000
   0.501532807   0.289560101   0.819029645

ATOMIC_POSITIONS (crystal)
Na       0.000000000   0.000000000   0.000000000
Cl       0.500000000   0.500000000   0.500000000



     Writing output data file Prototype-La-cF8-NaCl.save
     Check: negative starting charge=   -0.000100
     NEW-OLD atomic charge density approx. for the potential
     NEW k-points: (use verbosity='high' to print them)
     Check: negative starting charge=   -0.000100

     total cpu time spent up to now is      667.3 secs

     Self-consistent Calculation

     iteration #  1     ecut=    40.00 Ry     beta=0.70
     CG style diagonalization
     ethr =  1.00E-06,  avg # of iterations =  3.2

     total cpu time spent up to now is      681.1 secs

     End of self-consistent calculation

     Number of k-points >= 100: set verbosity='high' to print the bands.

     the Fermi energy is    22.5096 ev

!    total energy              =    -460.24403431 Ry
     Harris-Foulkes estimate   =    -460.24408153 Ry
     estimated scf accuracy    <       0.00005043 Ry

     The total energy is the sum of the following terms:

     one-electron contribution =    -154.62833996 Ry
     hartree contribution      =      93.10278998 Ry
     xc contribution           =     -41.58700582 Ry
     ewald contribution        =    -357.02555566 Ry
     smearing contrib. (-TS)   =      -0.10592285 Ry

     convergence has been achieved in   1 iterations

     Forces acting on atoms (Ry/au):

     atom    1 type  1   force =     0.00000000    0.00000000    0.00000000
     atom    2 type  2   force =     0.00000000    0.00000000    0.00000000

     Total force =     0.000000     Total SCF correction =     0.000000


     entering subroutine stress ...

          total   stress  (Ry/bohr**3)                   (kbar)     P=  -45.96
  -0.00031307   0.00000000   0.00000000        -46.05      0.00      0.00
   0.00000000  -0.00031307   0.00000000          0.00    -46.05      0.00
   0.00000000   0.00000000  -0.00031105          0.00      0.00    -45.76


     The maximum number of steps has been reached.

     End of BFGS Geometry Optimization
Begin final coordinates
     new unit-cell volume =    313.95332 a.u.^3 (    46.52308 Ang^3 )

CELL_PARAMETERS (alat=  7.60545813)
   1.003065614   0.000000000   0.000000000
   0.501532807   0.868680303   0.000000000
   0.501532807   0.289560101   0.819029645

ATOMIC_POSITIONS (crystal)
Na       0.000000000   0.000000000   0.000000000
Cl       0.500000000   0.500000000   0.500000000
End final coordinates



     A final scf calculation at the relaxed structure.
     The G-vectors are recalculated for the final unit cell
     Results may differ from those at the preceding step.
 
     Parallelization info
     --------------------
     sticks:   dense  smooth     PW     G-vecs:    dense   smooth      PW
     Min         162     162     52                 2693     2693     497
     Max         163     163     54                 2695     2695     498
     Sum         649     649    211                10777    10777    1989
 


     bravais-lattice index     =            0
     lattice parameter (alat)  =       7.6055  a.u.
     unit-cell volume          =     313.9533 (a.u.)^3
     number of atoms/cell      =            2
     number of atomic types    =            2
     number of electrons       =        36.00
     number of Kohn-Sham states=           22
     kinetic-energy cutoff     =      40.0000  Ry
     charge density cutoff     =     160.0000  Ry
     convergence threshold     =      1.0E-04
     mixing beta               =       0.7000
     number of iterations used =            8  plain     mixing
     Exchange-correlation      = SLA-PZ-NOGX-NOGC ( 1 1 0 0 0)
     EXX-fraction              =        0.00

     celldm(1)=   7.605458  celldm(2)=   0.000000  celldm(3)=   0.000000
     celldm(4)=   0.000000  celldm(5)=   0.000000  celldm(6)=   0.000000

     crystal axes: (cart. coord. in units of alat)
               a(1) = (   1.003066   0.000000   0.000000 )  
               a(2) = (   0.501533   0.868680   0.000000 )  
               a(3) = (   0.501533   0.289560   0.819030 )  

     reciprocal axes: (cart. coord. in units 2 pi/alat)
               b(1) = (  0.996944 -0.575586 -0.406986 )  
               b(2) = (  0.000000  1.151171 -0.406986 )  
               b(3) = (  0.000000  0.000000  1.220957 )  


     PseudoPot. # 1 for Pr read from file:
     /home/cwx6513/pp.La/Pr.UPF
     MD5 check sum: 70e2b4b153859e92c8c91247dfc63203
     Pseudo is Norm-conserving, Zval = 13.0
     Generated in analytical, separable form
     Using radial grid of 1255 points,  6 beta functions with: 
                l(1) =   0
                l(2) =   0
                l(3) =   1
                l(4) =   1
                l(5) =   2
                l(6) =   3

     PseudoPot. # 2 for Tm read from file:
     /home/cwx6513/pp.La/Tm.UPF
     MD5 check sum: 245516e0878b5372ceeb9443ded2c4e1
     Pseudo is Norm-conserving, Zval = 23.0
     Generated in analytical, separable form
     Using radial grid of 1269 points,  6 beta functions with: 
                l(1) =   0
                l(2) =   0
                l(3) =   1
                l(4) =   1
                l(5) =   2
                l(6) =   3

     atomic species   valence    mass     pseudopotential
        Na            13.00    22.98970     Pr( 1.00)
        Cl            23.00    35.45300     Tm( 1.00)

     12 Sym. Ops., with inversion, found



   Cartesian axes

     site n.     atom                  positions (alat units)
         1           Na  tau(   1) = (   0.0000000   0.0000000   0.0000000  )
         2           Cl  tau(   2) = (   1.0030656   0.5791202   0.4095148  )

     number of k points=   496  gaussian smearing, width (Ry)=  0.1000

     Number of k-points >= 100: set verbosity='high' to print them.

     Dense  grid:    10777 G-vectors     FFT dimensions: (  32,  32,  32)

     Largest allocated arrays     est. size (Mb)     dimensions
        Kohn-Sham Wavefunctions         0.12 Mb     (    345,   22)
        NL pseudopotentials             0.21 Mb     (    345,   40)
        Each V/rho on FFT grid          0.12 Mb     (   8192)
        Each G-vector array             0.02 Mb     (   2694)
        G-vector shells                 0.01 Mb     (    765)
     Largest temporary arrays     est. size (Mb)     dimensions
        Each subspace H/S matrix        0.01 Mb     (  22,  22)
        Each <psi_i|beta_j> matrix      0.01 Mb     (     40,   22)
        Arrays for rho mixing           1.00 Mb     (   8192,   8)

     Initial potential from superposition of free atoms
     Check: negative starting charge=   -0.000100

     starting charge   12.99054, renormalised to   36.00000

     negative rho (up, down):  0.278E-03 0.000E+00
     Starting wfc are   20 randomized atomic wfcs

     Writing output data file Prototype-La-cF8-NaCl.save

     total cpu time spent up to now is      688.4 secs

     Self-consistent Calculation

     iteration #  1     ecut=    40.00 Ry     beta=0.70
     CG style diagonalization
     c_bands:  4 eigenvalues not converged
     c_bands:  5 eigenvalues not converged
     c_bands:  1 eigenvalues not converged
     c_bands:  5 eigenvalues not converged
     c_bands:  5 eigenvalues not converged
     c_bands:  5 eigenvalues not converged
     c_bands:  1 eigenvalues not converged
     c_bands:  1 eigenvalues not converged
     c_bands:  1 eigenvalues not converged
     c_bands:  3 eigenvalues not converged
     c_bands:  2 eigenvalues not converged
     c_bands:  1 eigenvalues not converged
     c_bands:  2 eigenvalues not converged
     c_bands:  3 eigenvalues not converged
     c_bands:  1 eigenvalues not converged
     c_bands:  1 eigenvalues not converged
     c_bands:  2 eigenvalues not converged
     c_bands:  2 eigenvalues not converged
     c_bands:  4 eigenvalues not converged
     c_bands:  4 eigenvalues not converged
     c_bands:  2 eigenvalues not converged
     c_bands:  1 eigenvalues not converged
     c_bands:  3 eigenvalues not converged
     c_bands:  4 eigenvalues not converged
     c_bands:  1 eigenvalues not converged
     c_bands:  2 eigenvalues not converged
     c_bands:  2 eigenvalues not converged
     c_bands:  4 eigenvalues not converged
     c_bands:  1 eigenvalues not converged
     c_bands:  3 eigenvalues not converged
     c_bands:  2 eigenvalues not converged
     c_bands:  2 eigenvalues not converged
     c_bands:  1 eigenvalues not converged
     c_bands:  1 eigenvalues not converged
     c_bands:  2 eigenvalues not converged
     c_bands:  1 eigenvalues not converged
     c_bands:  1 eigenvalues not converged
     c_bands:  5 eigenvalues not converged
     c_bands:  5 eigenvalues not converged
     c_bands:  1 eigenvalues not converged
     c_bands:  2 eigenvalues not converged
     c_bands:  1 eigenvalues not converged
     c_bands:  2 eigenvalues not converged
     c_bands:  4 eigenvalues not converged
     c_bands:  2 eigenvalues not converged
     c_bands:  2 eigenvalues not converged
     c_bands:  1 eigenvalues not converged
     c_bands:  1 eigenvalues not converged
     c_bands:  4 eigenvalues not converged
     c_bands:  3 eigenvalues not converged
     c_bands:  1 eigenvalues not converged
     c_bands:  3 eigenvalues not converged
     c_bands:  1 eigenvalues not converged
     c_bands:  5 eigenvalues not converged
     c_bands:  1 eigenvalues not converged
     c_bands:  5 eigenvalues not converged
     c_bands:  1 eigenvalues not converged
     c_bands:  2 eigenvalues not converged
     c_bands:  5 eigenvalues not converged
     c_bands:  3 eigenvalues not converged
     c_bands:  2 eigenvalues not converged
     c_bands:  1 eigenvalues not converged
     c_bands:  1 eigenvalues not converged
     c_bands:  3 eigenvalues not converged
     c_bands:  2 eigenvalues not converged
     c_bands:  1 eigenvalues not converged
     c_bands:  4 eigenvalues not converged
     c_bands:  2 eigenvalues not converged
     c_bands:  4 eigenvalues not converged
     c_bands:  1 eigenvalues not converged
     c_bands:  1 eigenvalues not converged
     c_bands:  1 eigenvalues not converged
     c_bands:  2 eigenvalues not converged
     c_bands:  3 eigenvalues not converged
     c_bands:  2 eigenvalues not converged
     c_bands:  4 eigenvalues not converged
     c_bands:  4 eigenvalues not converged
     c_bands:  2 eigenvalues not converged
     c_bands:  1 eigenvalues not converged
     c_bands:  1 eigenvalues not converged
     c_bands:  1 eigenvalues not converged
     c_bands:  4 eigenvalues not converged
     c_bands:  1 eigenvalues not converged
     c_bands:  3 eigenvalues not converged
     c_bands:  2 eigenvalues not converged
     c_bands:  2 eigenvalues not converged
     c_bands:  2 eigenvalues not converged
     c_bands:  1 eigenvalues not converged
     c_bands:  2 eigenvalues not converged
     c_bands:  2 eigenvalues not converged
     c_bands:  3 eigenvalues not converged
     c_bands:  2 eigenvalues not converged
     c_bands:  2 eigenvalues not converged
     c_bands:  1 eigenvalues not converged
     c_bands:  5 eigenvalues not converged
     c_bands:  5 eigenvalues not converged
     c_bands:  1 eigenvalues not converged
     c_bands:  1 eigenvalues not converged
     c_bands:  2 eigenvalues not converged
     c_bands:  3 eigenvalues not converged
     c_bands:  1 eigenvalues not converged
     c_bands:  1 eigenvalues not converged
     c_bands:  1 eigenvalues not converged
     c_bands:  2 eigenvalues not converged
     c_bands:  4 eigenvalues not converged
     c_bands:  2 eigenvalues not converged
     c_bands:  2 eigenvalues not converged
     c_bands:  1 eigenvalues not converged
     c_bands:  2 eigenvalues not converged
     c_bands:  2 eigenvalues not converged
     c_bands:  2 eigenvalues not converged
     c_bands:  1 eigenvalues not converged
     c_bands:  2 eigenvalues not converged
     c_bands:  2 eigenvalues not converged
     c_bands:  4 eigenvalues not converged
     c_bands:  2 eigenvalues not converged
     c_bands:  2 eigenvalues not converged
     c_bands:  2 eigenvalues not converged
     c_bands:  1 eigenvalues not converged
     c_bands:  2 eigenvalues not converged
     c_bands:  3 eigenvalues not converged
     c_bands:  1 eigenvalues not converged
     c_bands:  2 eigenvalues not converged
     c_bands:  3 eigenvalues not converged
     c_bands:  1 eigenvalues not converged
     c_bands:  2 eigenvalues not converged
     c_bands:  3 eigenvalues not converged
     c_bands:  1 eigenvalues not converged
     c_bands:  4 eigenvalues not converged
     c_bands:  2 eigenvalues not converged
     c_bands:  1 eigenvalues not converged
     c_bands:  5 eigenvalues not converged
     c_bands:  2 eigenvalues not converged
     c_bands:  2 eigenvalues not converged
     c_bands:  2 eigenvalues not converged
     c_bands:  1 eigenvalues not converged
     c_bands:  1 eigenvalues not converged
     c_bands:  2 eigenvalues not converged
     c_bands:  2 eigenvalues not converged
     c_bands:  5 eigenvalues not converged
     c_bands:  2 eigenvalues not converged
     c_bands:  4 eigenvalues not converged
     c_bands:  2 eigenvalues not converged
     c_bands:  1 eigenvalues not converged
     c_bands:  2 eigenvalues not converged
     c_bands:  4 eigenvalues not converged
     c_bands:  2 eigenvalues not converged
     c_bands:  1 eigenvalues not converged
     c_bands:  1 eigenvalues not converged
     c_bands:  1 eigenvalues not converged
     c_bands:  1 eigenvalues not converged
     c_bands:  2 eigenvalues not converged
     c_bands:  2 eigenvalues not converged
     c_bands:  1 eigenvalues not converged
     c_bands:  5 eigenvalues not converged
     c_bands:  2 eigenvalues not converged
     c_bands:  1 eigenvalues not converged
     c_bands:  2 eigenvalues not converged
     c_bands:  2 eigenvalues not converged
     c_bands:  2 eigenvalues not converged
     c_bands:  2 eigenvalues not converged
     c_bands:  4 eigenvalues not converged
     c_bands:  2 eigenvalues not converged
     c_bands:  1 eigenvalues not converged
     c_bands:  1 eigenvalues not converged
     c_bands:  3 eigenvalues not converged
     c_bands:  1 eigenvalues not converged
     c_bands:  2 eigenvalues not converged
     c_bands:  2 eigenvalues not converged
     c_bands:  2 eigenvalues not converged
     c_bands:  2 eigenvalues not converged
     c_bands:  2 eigenvalues not converged
     c_bands:  3 eigenvalues not converged
     c_bands:  2 eigenvalues not converged
     c_bands:  3 eigenvalues not converged
     c_bands:  1 eigenvalues not converged
     c_bands:  1 eigenvalues not converged
     c_bands:  1 eigenvalues not converged
     c_bands:  2 eigenvalues not converged
     c_bands:  4 eigenvalues not converged
     c_bands:  2 eigenvalues not converged
     c_bands:  1 eigenvalues not converged
     c_bands:  1 eigenvalues not converged
     c_bands:  2 eigenvalues not converged
     c_bands:  3 eigenvalues not converged
     c_bands:  1 eigenvalues not converged
     c_bands:  2 eigenvalues not converged
     c_bands:  3 eigenvalues not converged
     c_bands:  2 eigenvalues not converged
     c_bands:  2 eigenvalues not converged
     c_bands:  2 eigenvalues not converged
     c_bands:  5 eigenvalues not converged
     c_bands:  2 eigenvalues not converged
     c_bands:  5 eigenvalues not converged
     c_bands:  2 eigenvalues not converged
     c_bands:  2 eigenvalues not converged
     c_bands:  2 eigenvalues not converged
     c_bands:  1 eigenvalues not converged
     c_bands:  2 eigenvalues not converged
     c_bands:  2 eigenvalues not converged
     c_bands:  2 eigenvalues not converged
     c_bands:  4 eigenvalues not converged
     c_bands:  4 eigenvalues not converged
     c_bands:  2 eigenvalues not converged
     c_bands:  1 eigenvalues not converged
     c_bands:  4 eigenvalues not converged
     c_bands:  1 eigenvalues not converged
     c_bands:  2 eigenvalues not converged
     c_bands:  2 eigenvalues not converged
     c_bands:  5 eigenvalues not converged
     c_bands:  1 eigenvalues not converged
     c_bands:  4 eigenvalues not converged
     c_bands:  4 eigenvalues not converged
     c_bands:  2 eigenvalues not converged
     c_bands:  1 eigenvalues not converged
     c_bands:  4 eigenvalues not converged
     c_bands:  1 eigenvalues not converged
     c_bands:  2 eigenvalues not converged
     c_bands:  1 eigenvalues not converged
     c_bands:  2 eigenvalues not converged
     c_bands:  2 eigenvalues not converged
     c_bands:  2 eigenvalues not converged
     c_bands:  2 eigenvalues not converged
     c_bands:  5 eigenvalues not converged
     c_bands:  1 eigenvalues not converged
     c_bands:  5 eigenvalues not converged
     c_bands:  3 eigenvalues not converged
     c_bands:  1 eigenvalues not converged
     c_bands:  1 eigenvalues not converged
     c_bands:  2 eigenvalues not converged
     c_bands:  3 eigenvalues not converged
     c_bands:  2 eigenvalues not converged
     c_bands:  5 eigenvalues not converged
     c_bands:  1 eigenvalues not converged
     c_bands:  3 eigenvalues not converged
     c_bands:  1 eigenvalues not converged
     c_bands:  4 eigenvalues not converged
     c_bands:  2 eigenvalues not converged
     c_bands:  1 eigenvalues not converged
     c_bands:  3 eigenvalues not converged
     c_bands:  2 eigenvalues not converged
     c_bands:  2 eigenvalues not converged
     c_bands:  3 eigenvalues not converged
     c_bands:  1 eigenvalues not converged
     c_bands:  2 eigenvalues not converged
     c_bands:  5 eigenvalues not converged
     c_bands:  1 eigenvalues not converged
     c_bands:  2 eigenvalues not converged
     c_bands:  5 eigenvalues not converged
     c_bands:  2 eigenvalues not converged
     c_bands:  3 eigenvalues not converged
     c_bands:  1 eigenvalues not converged
     c_bands:  3 eigenvalues not converged
     c_bands:  1 eigenvalues not converged
     c_bands:  5 eigenvalues not converged
     c_bands:  2 eigenvalues not converged
     c_bands:  2 eigenvalues not converged
     c_bands:  2 eigenvalues not converged
     c_bands:  2 eigenvalues not converged
     c_bands:  2 eigenvalues not converged
     c_bands:  2 eigenvalues not converged
     c_bands:  1 eigenvalues not converged
     c_bands:  1 eigenvalues not converged
     c_bands:  1 eigenvalues not converged
     c_bands:  4 eigenvalues not converged
     c_bands:  5 eigenvalues not converged
     c_bands:  1 eigenvalues not converged
     c_bands:  2 eigenvalues not converged
     c_bands:  4 eigenvalues not converged
     c_bands:  2 eigenvalues not converged
     c_bands:  2 eigenvalues not converged
     c_bands:  4 eigenvalues not converged
     c_bands:  2 eigenvalues not converged
     c_bands:  1 eigenvalues not converged
     c_bands:  2 eigenvalues not converged
     c_bands:  3 eigenvalues not converged
     c_bands:  5 eigenvalues not converged
     c_bands:  2 eigenvalues not converged
     c_bands:  2 eigenvalues not converged
     c_bands:  1 eigenvalues not converged
     c_bands:  2 eigenvalues not converged
     c_bands:  1 eigenvalues not converged
     c_bands:  4 eigenvalues not converged
     c_bands:  2 eigenvalues not converged
     c_bands:  2 eigenvalues not converged
     c_bands:  5 eigenvalues not converged
     c_bands:  1 eigenvalues not converged
     c_bands:  1 eigenvalues not converged
     c_bands:  5 eigenvalues not converged
     c_bands:  2 eigenvalues not converged
     c_bands:  2 eigenvalues not converged
     c_bands:  3 eigenvalues not converged
     c_bands:  1 eigenvalues not converged
     c_bands:  5 eigenvalues not converged
     c_bands:  2 eigenvalues not converged
     c_bands:  2 eigenvalues not converged
     c_bands:  4 eigenvalues not converged
     c_bands:  2 eigenvalues not converged
     c_bands:  1 eigenvalues not converged
     c_bands:  1 eigenvalues not converged
     c_bands:  2 eigenvalues not converged
     c_bands:  3 eigenvalues not converged
     c_bands:  5 eigenvalues not converged
     c_bands:  4 eigenvalues not converged
     c_bands:  2 eigenvalues not converged
     c_bands:  1 eigenvalues not converged
     c_bands:  2 eigenvalues not converged
     c_bands:  3 eigenvalues not converged
     c_bands:  3 eigenvalues not converged
     c_bands:  2 eigenvalues not converged
     c_bands:  2 eigenvalues not converged
     c_bands:  4 eigenvalues not converged
     c_bands:  2 eigenvalues not converged
     c_bands:  5 eigenvalues not converged
     c_bands:  1 eigenvalues not converged
     c_bands:  2 eigenvalues not converged
     c_bands:  1 eigenvalues not converged
     c_bands:  4 eigenvalues not converged
     c_bands:  3 eigenvalues not converged
     c_bands:  2 eigenvalues not converged
     c_bands:  2 eigenvalues not converged
     c_bands:  2 eigenvalues not converged
     c_bands:  2 eigenvalues not converged
     c_bands:  5 eigenvalues not converged
     c_bands:  2 eigenvalues not converged
     c_bands:  1 eigenvalues not converged
     c_bands:  5 eigenvalues not converged
     c_bands:  1 eigenvalues not converged
     c_bands:  1 eigenvalues not converged
     c_bands:  2 eigenvalues not converged
     c_bands:  5 eigenvalues not converged
     c_bands:  5 eigenvalues not converged
     c_bands:  2 eigenvalues not converged
     c_bands:  3 eigenvalues not converged
     c_bands:  2 eigenvalues not converged
     c_bands:  2 eigenvalues not converged
     c_bands:  2 eigenvalues not converged
     c_bands:  1 eigenvalues not converged
     c_bands:  3 eigenvalues not converged
     c_bands:  3 eigenvalues not converged
     c_bands:  1 eigenvalues not converged
     c_bands:  1 eigenvalues not converged
     c_bands:  1 eigenvalues not converged
     c_bands:  1 eigenvalues not converged
     c_bands:  4 eigenvalues not converged
     c_bands:  1 eigenvalues not converged
     c_bands:  4 eigenvalues not converged
     c_bands:  5 eigenvalues not converged
     c_bands:  1 eigenvalues not converged
     c_bands:  3 eigenvalues not converged
     c_bands:  1 eigenvalues not converged
     c_bands:  3 eigenvalues not converged
     c_bands:  1 eigenvalues not converged
     c_bands:  5 eigenvalues not converged
     c_bands:  5 eigenvalues not converged
     c_bands:  5 eigenvalues not converged
     c_bands:  3 eigenvalues not converged
     c_bands:  2 eigenvalues not converged
     c_bands:  2 eigenvalues not converged
     c_bands:  1 eigenvalues not converged
     c_bands:  1 eigenvalues not converged
     c_bands:  1 eigenvalues not converged
     c_bands:  2 eigenvalues not converged
     c_bands:  1 eigenvalues not converged
     c_bands:  3 eigenvalues not converged
     c_bands:  4 eigenvalues not converged
     c_bands:  2 eigenvalues not converged
     c_bands:  1 eigenvalues not converged
     c_bands:  1 eigenvalues not converged
     c_bands:  5 eigenvalues not converged
     c_bands:  2 eigenvalues not converged
     c_bands:  2 eigenvalues not converged
     c_bands:  2 eigenvalues not converged
     c_bands:  4 eigenvalues not converged
     c_bands:  4 eigenvalues not converged
     c_bands:  2 eigenvalues not converged
     c_bands:  1 eigenvalues not converged
     c_bands:  2 eigenvalues not converged
     c_bands:  2 eigenvalues not converged
     c_bands:  1 eigenvalues not converged
     c_bands:  4 eigenvalues not converged
     c_bands:  2 eigenvalues not converged
     c_bands:  4 eigenvalues not converged
     c_bands:  5 eigenvalues not converged
     c_bands:  2 eigenvalues not converged
     c_bands:  2 eigenvalues not converged
     c_bands:  1 eigenvalues not converged
     c_bands:  1 eigenvalues not converged
     c_bands:  3 eigenvalues not converged
     c_bands:  2 eigenvalues not converged
     c_bands:  1 eigenvalues not converged
     c_bands:  3 eigenvalues not converged
     c_bands:  3 eigenvalues not converged
     c_bands:  2 eigenvalues not converged
     c_bands:  4 eigenvalues not converged
     c_bands:  1 eigenvalues not converged
     c_bands:  4 eigenvalues not converged
     c_bands:  2 eigenvalues not converged
     c_bands:  5 eigenvalues not converged
     c_bands:  3 eigenvalues not converged
     c_bands:  1 eigenvalues not converged
     c_bands:  2 eigenvalues not converged
     c_bands:  1 eigenvalues not converged
     c_bands:  1 eigenvalues not converged
     c_bands:  2 eigenvalues not converged
     c_bands:  3 eigenvalues not converged
     c_bands:  2 eigenvalues not converged
     c_bands:  2 eigenvalues not converged
     c_bands:  4 eigenvalues not converged
     c_bands:  2 eigenvalues not converged
     c_bands:  5 eigenvalues not converged
     c_bands:  3 eigenvalues not converged
     c_bands:  5 eigenvalues not converged
     c_bands:  2 eigenvalues not converged
     c_bands:  1 eigenvalues not converged
     c_bands:  1 eigenvalues not converged
     c_bands:  5 eigenvalues not converged
     c_bands:  5 eigenvalues not converged
     c_bands:  1 eigenvalues not converged
     c_bands:  4 eigenvalues not converged
     c_bands:  5 eigenvalues not converged
     c_bands:  2 eigenvalues not converged
     c_bands:  4 eigenvalues not converged
     c_bands:  4 eigenvalues not converged
     c_bands:  1 eigenvalues not converged
     c_bands:  2 eigenvalues not converged
     c_bands:  4 eigenvalues not converged
     c_bands:  1 eigenvalues not converged
     c_bands:  4 eigenvalues not converged
     c_bands:  4 eigenvalues not converged
     c_bands:  5 eigenvalues not converged
     c_bands:  2 eigenvalues not converged
     c_bands:  2 eigenvalues not converged
     c_bands:  1 eigenvalues not converged
     c_bands:  2 eigenvalues not converged
     c_bands:  1 eigenvalues not converged
     c_bands:  1 eigenvalues not converged
     c_bands:  4 eigenvalues not converged
     c_bands:  1 eigenvalues not converged
     c_bands:  2 eigenvalues not converged
     c_bands:  1 eigenvalues not converged
     c_bands:  2 eigenvalues not converged
     c_bands:  2 eigenvalues not converged
     c_bands:  5 eigenvalues not converged
     ethr =  1.00E-06,  avg # of iterations = 54.2

     negative rho (up, down):  0.829E-04 0.000E+00

     total cpu time spent up to now is      920.7 secs

     total energy              =    -232.47700185 Ry
     Harris-Foulkes estimate   =    -967.42732070 Ry
     estimated scf accuracy    <     876.53760923 Ry

     iteration #  2     ecut=    40.00 Ry     beta=0.70
     CG style diagonalization
     c_bands:  1 eigenvalues not converged
     c_bands:  1 eigenvalues not converged
     c_bands:  1 eigenvalues not converged
     c_bands:  1 eigenvalues not converged
     c_bands:  1 eigenvalues not converged
     c_bands:  1 eigenvalues not converged
     c_bands:  1 eigenvalues not converged
     c_bands:  1 eigenvalues not converged
     c_bands:  1 eigenvalues not converged
     ethr =  1.00E-02,  avg # of iterations = 11.7

     negative rho (up, down):  0.402E-04 0.000E+00

     total cpu time spent up to now is      969.1 secs

     total energy              =    -375.71406967 Ry
     Harris-Foulkes estimate   =    -567.67968641 Ry
     estimated scf accuracy    <     292.91695747 Ry

     iteration #  3     ecut=    40.00 Ry     beta=0.70
     CG style diagonalization
     c_bands:  1 eigenvalues not converged
     c_bands:  1 eigenvalues not converged
     ethr =  1.00E-02,  avg # of iterations = 10.9

     negative rho (up, down):  0.137E-04 0.000E+00

     total cpu time spent up to now is     1385.3 secs

     total energy              =    -456.60454989 Ry
     Harris-Foulkes estimate   =    -470.14890622 Ry
     estimated scf accuracy    <      27.03005252 Ry

     iteration #  4     ecut=    40.00 Ry     beta=0.70
     CG style diagonalization
     ethr =  1.00E-02,  avg # of iterations =  4.9

     negative rho (up, down):  0.261E-05 0.000E+00

     total cpu time spent up to now is     1406.5 secs

     total energy              =    -460.36954959 Ry
     Harris-Foulkes estimate   =    -460.70383044 Ry
     estimated scf accuracy    <       1.26607105 Ry

     iteration #  5     ecut=    40.00 Ry     beta=0.70
     CG style diagonalization
     ethr =  3.52E-03,  avg # of iterations =  3.1

     total cpu time spent up to now is     1420.5 secs

     total energy              =    -460.03678776 Ry
     Harris-Foulkes estimate   =    -460.44871364 Ry
     estimated scf accuracy    <       0.61413629 Ry

     iteration #  6     ecut=    40.00 Ry     beta=0.70
     CG style diagonalization
     ethr =  1.71E-03,  avg # of iterations =  3.9

     total cpu time spent up to now is     1437.7 secs

     total energy              =    -460.26918651 Ry
     Harris-Foulkes estimate   =    -460.26482199 Ry
     estimated scf accuracy    <       0.05477174 Ry

     iteration #  7     ecut=    40.00 Ry     beta=0.70
     CG style diagonalization
     ethr =  1.52E-04,  avg # of iterations =  3.9

     total cpu time spent up to now is     1455.2 secs

     total energy              =    -460.28434125 Ry
     Harris-Foulkes estimate   =    -460.27900818 Ry
     estimated scf accuracy    <       0.07679808 Ry

     iteration #  8     ecut=    40.00 Ry     beta=0.70
     CG style diagonalization
     ethr =  1.52E-04,  avg # of iterations =  3.0

     total cpu time spent up to now is     1468.1 secs

     total energy              =    -460.24642190 Ry
     Harris-Foulkes estimate   =    -460.28540957 Ry
     estimated scf accuracy    <       0.09115393 Ry

     iteration #  9     ecut=    40.00 Ry     beta=0.70
     CG style diagonalization
     ethr =  1.52E-04,  avg # of iterations =  3.3

     total cpu time spent up to now is     1481.7 secs

     total energy              =    -460.25528894 Ry
     Harris-Foulkes estimate   =    -460.25690438 Ry
     estimated scf accuracy    <       0.00698923 Ry

     iteration # 10     ecut=    40.00 Ry     beta=0.70
     CG style diagonalization
     c_bands:  1 eigenvalues not converged
     c_bands:  1 eigenvalues not converged
     c_bands:  1 eigenvalues not converged
     c_bands:  1 eigenvalues not converged
     c_bands:  1 eigenvalues not converged
     ethr =  1.94E-05,  avg # of iterations =  3.6

     total cpu time spent up to now is     1497.2 secs

     total energy              =    -460.25594984 Ry
     Harris-Foulkes estimate   =    -460.25609971 Ry
     estimated scf accuracy    <       0.00284105 Ry

     iteration # 11     ecut=    40.00 Ry     beta=0.70
     CG style diagonalization
     c_bands:  1 eigenvalues not converged
     c_bands:  1 eigenvalues not converged
     ethr =  7.89E-06,  avg # of iterations =  3.0

     total cpu time spent up to now is     1510.7 secs

     total energy              =    -460.25552489 Ry
     Harris-Foulkes estimate   =    -460.25603695 Ry
     estimated scf accuracy    <       0.00259052 Ry

     iteration # 12     ecut=    40.00 Ry     beta=0.70
     CG style diagonalization
     ethr =  7.20E-06,  avg # of iterations =  3.0

     total cpu time spent up to now is     1523.5 secs

     total energy              =    -460.25489700 Ry
     Harris-Foulkes estimate   =    -460.25559326 Ry
     estimated scf accuracy    <       0.00148633 Ry

     iteration # 13     ecut=    40.00 Ry     beta=0.70
     CG style diagonalization
     ethr =  4.13E-06,  avg # of iterations =  3.7

     total cpu time spent up to now is     1539.2 secs

     total energy              =    -460.25526617 Ry
     Harris-Foulkes estimate   =    -460.25530640 Ry
     estimated scf accuracy    <       0.00026226 Ry

     iteration # 14     ecut=    40.00 Ry     beta=0.70
     CG style diagonalization
     c_bands:  1 eigenvalues not converged
     ethr =  7.28E-07,  avg # of iterations =  3.1

     total cpu time spent up to now is     1552.5 secs

     total energy              =    -460.25520906 Ry
     Harris-Foulkes estimate   =    -460.25528010 Ry
     estimated scf accuracy    <       0.00019015 Ry

     iteration # 15     ecut=    40.00 Ry     beta=0.70
     CG style diagonalization
     ethr =  5.28E-07,  avg # of iterations =  3.5

     total cpu time spent up to now is     1567.8 secs

     total energy              =    -460.25516140 Ry
     Harris-Foulkes estimate   =    -460.25527881 Ry
     estimated scf accuracy    <       0.00022423 Ry

     iteration # 16     ecut=    40.00 Ry     beta=0.70
     CG style diagonalization
     ethr =  5.28E-07,  avg # of iterations =  3.4

     total cpu time spent up to now is     1584.1 secs

     End of self-consistent calculation

     Number of k-points >= 100: set verbosity='high' to print the bands.

     the Fermi energy is    22.5196 ev

!    total energy              =    -460.25519469 Ry
     Harris-Foulkes estimate   =    -460.25521040 Ry
     estimated scf accuracy    <       0.00002260 Ry

     The total energy is the sum of the following terms:

     one-electron contribution =    -154.65980571 Ry
     hartree contribution      =      93.12235618 Ry
     xc contribution           =     -41.58635405 Ry
     ewald contribution        =    -357.02555566 Ry
     smearing contrib. (-TS)   =      -0.10583545 Ry

     convergence has been achieved in  16 iterations

     Forces acting on atoms (Ry/au):

     atom    1 type  1   force =     0.00000000    0.00000000    0.00000000
     atom    2 type  2   force =     0.00000000    0.00000000    0.00000000

     Total force =     0.000000     Total SCF correction =     0.000000


     entering subroutine stress ...

          total   stress  (Ry/bohr**3)                   (kbar)     P=  -42.00
  -0.00028496   0.00000000   0.00000000        -41.92      0.00      0.00
   0.00000000  -0.00028496   0.00000000          0.00    -41.92      0.00
   0.00000000   0.00000000  -0.00028661          0.00      0.00    -42.16


     Writing output data file Prototype-La-cF8-NaCl.save
 
     init_run     :      6.42s CPU      8.22s WALL (       2 calls)
     electrons    :    944.15s CPU   1559.42s WALL (       5 calls)
     update_pot   :      0.70s CPU      0.85s WALL (       3 calls)
     forces       :      2.69s CPU      2.92s WALL (       5 calls)
     stress       :      9.46s CPU      9.71s WALL (       5 calls)

     Called by init_run:
     wfcinit      :      6.04s CPU      7.82s WALL (       2 calls)
     potinit      :      0.12s CPU      0.12s WALL (       2 calls)

     Called by electrons:
     c_bands      :    887.88s CPU   1102.44s WALL (      45 calls)
     sum_band     :     56.10s CPU     75.06s WALL (      45 calls)
     v_of_rho     :      0.03s CPU      0.04s WALL (      49 calls)
     mix_rho      :      0.04s CPU      0.04s WALL (      45 calls)

     Called by c_bands:
     init_us_2    :      7.54s CPU      7.86s WALL (   50592 calls)
     ccgdiagg     :    731.87s CPU    896.62s WALL (   24028 calls)
     wfcrot       :    156.67s CPU    199.11s WALL (   24524 calls)

     Called by *cgdiagg:
     h_psi        :    716.07s CPU    895.53s WALL ( 2355719 calls)
     cdiaghg      :      3.45s CPU      4.50s WALL (   24524 calls)

     Called by h_psi:
     add_vuspsi   :     26.61s CPU     36.95s WALL ( 2355719 calls)

     General routines
     calbec       :     94.66s CPU    114.37s WALL ( 4691874 calls)
     fft          :      0.08s CPU      0.09s WALL (     221 calls)
     fftw         :    629.13s CPU    784.97s WALL ( 6232486 calls)
     davcio       :      2.24s CPU     11.49s WALL (   72912 calls)
 
     Parallel routines
     fft_scatter  :    306.83s CPU    375.45s WALL ( 6232707 calls)
 
     PWSCF        : 16m 6.78s CPU    26m27.64s WALL

 
   This run was terminated on:  16:48:16  22Mar2018            

=------------------------------------------------------------------------------=
   JOB DONE.
=------------------------------------------------------------------------------=
